TiO2                                    
   1.00000000000000     
     4.584000    0.000000    0.000000
     0.000000    4.584000    0.000000
     0.000000    0.000000    2.953000
   Ti   O 
     2     4
Direct
  0.000000  0.000000  0.000000
  0.500000  0.500000  0.500000
  0.196209  0.803791  0.500000
  0.803791  0.196209  0.500000
  0.303791  0.303791  0.000000
  0.696209  0.696209  0.000000
 
   56   56   32
  931.25      904.37      828.07      714.38      580.13      443.07      318.04      214.49      136.03      81.528    
  47.021      27.371      17.385      12.447      9.6201      7.9603      6.9289      6.1974      5.5912      5.0366    
  4.5162      4.0345      3.5987      3.2154      2.8919      2.6344      2.4466      2.3315      2.2926      2.3315    
  2.4466      2.6344      2.8919      3.2154      3.5987      4.0345      4.5162      5.0366      5.5912      6.1974    
  6.9289      7.9603      9.6201      12.447      17.385      27.371      47.021      81.528      136.03      214.49    
  318.04      443.07      580.13      714.38      828.07      904.37      904.37      878.35      804.51      694.56    
  564.78      432.23      311.12      210.59      134.19      80.983      47.265      28.112      18.437      13.655    
  10.910      9.2918      8.2673      7.5094      6.8455      6.2061      5.5799      4.9773      4.4118      3.8954    
  3.4395      3.0538      2.7443      2.5147      2.3679      2.3039      2.3194      2.4090      2.5688      2.7950    
  3.0828      3.4274      3.8254      4.2734      4.7710      5.3373      6.0440      7.0587      8.6969      11.479    
  16.300      25.922      44.812      78.042      130.68      206.70      307.28      428.95      562.45      693.24    
  803.96      878.21      828.07      804.51      737.34      637.31      519.21      398.44      287.87      195.81    
  125.63      76.680      45.738      28.306      19.597      15.237      12.711      11.210      10.222      9.4366    
  8.6915      7.9285      7.1475      6.3699      5.6189      4.9149      4.2760      3.7169      3.2476      2.8742    
  2.5996      2.4231      2.3390      2.3399      2.4189      2.5701      2.7879      3.0680      3.4086      3.8088    
  4.2696      4.8093      5.4926      6.4712      8.0340      10.662      15.134      23.814      40.837      70.937    
  118.85      188.28      280.33      391.83      514.25      634.23      735.82      803.96      714.38      694.56    
  637.31      551.85      450.77      347.19      252.05      172.57      111.83      69.533      43.008      28.319    
  21.105      17.397      15.244      13.952      13.045      12.234      11.375      10.430      9.4172      8.3786    
  7.3544      6.3795      5.4824      4.6850      4.0015      3.4403      3.0044      2.6917      2.4945      2.4025    
  2.4047      2.4914      2.6539      2.8867      3.1877      3.5564      3.9946      4.5172      5.1780      6.1064    
  7.5532      9.9408      13.917      21.269      35.627      61.215      102.23      161.90      241.19      337.32    
  442.92      546.47      634.23      693.24      580.13      564.78      519.21      450.77      369.53      285.97    
  208.92      144.36      95.040      60.934      39.936      28.678      23.290      20.448      18.859      17.906    
  17.149      16.320      15.300      14.080      12.710      11.268      9.8257      8.4445      7.1712      6.0376    
  5.0617      4.2513      3.6065      3.1216      2.7858      2.5848      2.5029      2.5247      2.6370      2.8308    
  3.1021      3.4493      3.8734      4.3848      5.0242      5.8943      7.2004      9.2951      12.712      18.605    
  29.911      50.246      83.151      131.31      195.46      273.33      358.92      442.92      514.25      562.45    
  443.07      432.23      398.44      347.19      285.97      222.68      164.12      115.03      77.782      52.499    
  37.522      29.989      26.557      24.864      24.095      23.674      23.177      22.353      21.105      19.465    
  17.538      15.459      13.360      11.350      9.5099      7.8868      6.5011      5.3539      4.4354      3.7302    
  3.2200      2.8844      2.7013      2.6490      2.7080      2.8640      3.1088      3.4387      3.8524      4.3552    
  4.9741      5.7836      6.9408      8.7232      11.557      16.124      24.434      39.460      64.081      100.43    
  149.07      208.23      273.33      337.32      391.83      428.95      318.04      311.12      287.87      252.05    
  208.92      164.12      122.64      88.116      62.441      45.766      36.706      32.824      31.451      31.295    
  31.702      32.094      32.031      31.255      29.692      27.425      24.638      21.565      18.438      15.452    
  12.745      10.393      8.4186      6.8068      5.5252      4.5368      3.8068      3.3034      2.9954      2.8530    
  2.8491      2.9625      3.1791      3.4911      3.8939      4.3875      4.9858      5.7365      6.7500      8.2303    
  10.499      14.000      19.765      30.037      47.096      72.608      107.03      149.07      195.46      241.19    
  280.33      307.28      214.49      210.59      195.81      172.57      144.36      115.03      88.116      66.246    
  50.824      41.868      38.149      37.606      38.630      40.512      42.572      44.204      44.889      44.273    
  42.262      39.030      34.932      30.367      25.686      21.219      17.206      13.772      10.945      8.6831    
  6.9138      5.5598      4.5545      3.8440      3.3828      3.1300      3.0493      3.1111      3.2935      3.5830    
  3.9706      4.4511      5.0269      5.7225      6.6064      7.8161      9.5781      12.211      16.155      22.671    
  33.526      50.033      72.608      100.43      131.31      161.90      188.28      206.70      136.03      134.19    
  125.63      111.83      95.040      77.782      62.441      50.824      43.824      41.273      42.044      44.753    
  48.743      53.519      58.379      62.393      64.650      64.512      61.793      56.801      50.235      42.975    
  35.805      29.179      23.273      18.276      14.233      11.067      8.6417      6.8152      5.4670      4.5050    
  3.8593      3.4734      3.2996      3.2978      3.4371      3.6965      4.0617      4.5221      5.0711      5.7145    
  6.4864      7.4686      8.8071      10.717      13.464      17.457      23.790      33.526      47.096      64.081    
  83.151      102.23      118.85      130.68      81.528      80.983      76.680      69.533      60.934      52.499    
  45.766      41.868      41.273      43.667      48.263      54.757      63.090      72.648      82.200      90.181    
  95.089      95.871      92.181      84.475      73.898      61.996      50.305      39.933      31.283      24.142    
  18.431      14.038      10.744      8.3124      6.5416      5.2790      4.4164      3.8743      3.5900      3.5112    
  3.5967      3.8166      4.1502      4.5814      5.0968      5.6886      6.3650      7.1649      8.1710      9.5160    
  11.372      13.925      17.457      22.671      30.037      39.460      50.246      61.215      70.937      78.042    
  47.021      47.265      45.738      43.008      39.936      37.522      36.706      38.149      42.044      48.263    
  56.985      68.771      83.480      99.945      116.15      129.70      138.35      140.53      135.67      124.39    
  108.31      89.779      71.299      54.897      41.649      31.492      23.620      17.638      13.233      10.047    
  7.7659      6.1516      5.0405      4.3205      3.9091      3.7401      3.7608      3.9313      4.2233      4.6152    
  5.0884      5.6263      6.2197      6.8771      7.6354      8.5668      9.7739      11.372      13.464      16.155    
  19.765      24.434      29.911      35.627      40.837      44.812      27.371      28.112      28.306      28.319    
  28.678      29.989      32.824      37.606      44.753      54.757      68.771      87.541      110.50      135.71    
  160.18      180.56      193.80      197.77      191.66      176.20      153.51      126.79      99.595      75.064    
  55.186      40.406      29.751      21.834      16.081      11.992      9.1137      7.0998      5.7130      4.7972    
  4.2450      3.9745      3.9203      4.0321      4.2730      4.6158      5.0377      5.5173      6.0351      6.5803    
  7.1596      7.8039      8.5668      9.5160      10.717      12.211      14.000      16.124      18.605      21.269    
  23.814      25.922      17.385      18.437      19.597      21.105      23.290      26.557      31.451      38.630    
  48.743      63.090      83.480      110.50      142.98      178.04      211.67      239.52      257.76      263.72    
  256.36      236.51      206.75      171.05      134.02      99.966      71.937      51.079      36.615      26.481    
  19.194      14.083      10.540      8.0907      6.4094      5.2867      4.5852      4.2053      4.0688      4.1144    
  4.2966      4.5822      4.9448      5.3606      5.8055      6.2583      6.7080      7.1596      7.6354      8.1710    
  8.8071      9.5781      10.499      11.557      12.712      13.917      15.134      16.300      12.447      13.655    
  15.237      17.397      20.448      24.864      31.295      40.512      53.519      72.648      99.945      135.71    
  178.04      223.11      265.86      301.07      324.18      332.08      323.55      299.49      262.88      218.35    
  171.44      127.54      90.768      63.062      44.000      31.303      22.405      16.218      11.980      9.0810    
  7.1006      5.7696      4.9173      4.4254      4.2029      4.1781      4.2967      4.5195      4.8172      5.1645    
  5.5361      5.9073      6.2583      6.5803      6.8771      7.1649      7.4686      7.8161      8.2303      8.7232    
  9.2951      9.9408      10.662      11.479      9.6201      10.910      12.711      15.244      18.859      24.095    
  31.702      42.572      58.379      82.200      116.15      160.18      211.67      265.86      316.82      358.53    
  385.90      395.43      385.81      358.04      315.43      263.14      207.42      154.55      109.56      75.170    
  51.391      35.923      25.480      18.258      13.349      10.020      7.7551      6.2267      5.2309      4.6308    
  4.3234      4.2275      4.2809      4.4386      4.6685      4.9444      5.2418      5.5361      5.8055      6.0351    
  6.2197      6.3650      6.4864      6.6064      6.7500      6.9408      7.2004      7.5532      8.0340      8.6969    
  7.9603      9.2918      11.210      13.952      17.906      23.674      32.094      44.204      62.393      90.181    
  129.70      180.56      239.52      301.07      358.53      405.32      435.90      446.57      435.96      405.25    
  358.00      299.75      237.24      177.32      125.71      85.782      57.935      39.942      28.150      20.043    
  14.557      10.855      8.3426      6.6421      5.5195      4.8218      4.4358      4.2718      4.2612      4.3543    
  4.5164      4.7208      4.9444      5.1645      5.3606      5.5173      5.6263      5.6886      5.7145      5.7225    
  5.7365      5.7836      5.8943      6.1064      6.4712      7.0587      6.9289      8.2673      10.222      13.045    
  17.149      23.177      32.031      44.889      64.650      95.089      138.35      193.80      257.76      324.18    
  385.90      435.90      468.41      479.61      468.22      435.55      385.39      323.50      256.84      192.58    
  136.81      93.286      62.699      42.923      30.155      21.420      15.515      11.537      8.8380      7.0045    
  5.7814      5.0033      4.5492      4.3236      4.2529      4.2843      4.3809      4.5164      4.6685      4.8172    
  4.9448      5.0377      5.0884      5.0968      5.0711      5.0269      4.9858      4.9741      5.0242      5.1780    
  5.4926      6.0440      6.1974      7.5094      9.4366      12.234      16.320      22.353      31.255      44.273    
  64.512      95.871      140.53      197.77      263.72      332.08      395.43      446.57      479.61      490.80    
  478.93      445.49      394.41      331.48      263.69      198.21      141.20      96.514      64.962      44.491    
  31.297      22.270      16.157      12.031      9.2247      7.3093      6.0197      5.1842      4.6771      4.3994    
  4.2749      4.2490      4.2843      4.3543      4.4386      4.5195      4.5822      4.6158      4.6152      4.5814    
  4.5221      4.4511      4.3875      4.3552      4.3848      4.5172      4.8093      5.3373      5.5912      6.8455    
  8.6915      11.375      15.300      21.105      29.692      42.262      61.793      92.181      135.67      191.66    
  256.36      323.55      385.81      435.96      468.22      478.93      467.05      434.18      384.24      322.94    
  257.07      193.56      138.33      95.037      64.428      44.471      31.478      22.533      16.448      12.321    
  9.4991      7.5613      6.2458      5.3808      4.8398      4.5226      4.3525      4.2749      4.2529      4.2612    
  4.2809      4.2967      4.2966      4.2730      4.2233      4.1502      4.0617      3.9706      3.8939      3.8524    
  3.8734      3.9946      4.2696      4.7710      5.0366      6.2061      7.9285      10.430      14.080      19.465    
  27.425      39.030      56.801      84.475      124.39      176.20      236.51      299.49      358.04      405.25    
  435.55      445.49      434.18      403.23      356.44      299.27      238.16      179.54      128.82      89.251    
  61.302      42.944      30.722      22.220      16.397      12.417      9.6751      7.7794      6.4834      5.6216    
  5.0695      4.7282      4.5226      4.3994      4.3236      4.2718      4.2275      4.1781      4.1144      4.0321    
  3.9313      3.8166      3.6965      3.5830      3.4911      3.4387      3.4493      3.5564      3.8088      4.2734    
  4.5162      5.5799      7.1475      9.4172      12.710      17.538      24.638      34.932      50.235      73.898    
  108.31      153.51      206.75      262.88      315.43      358.00      385.39      394.41      384.24      356.44    
  314.57      263.70      209.71      158.36      114.34      80.244      56.210      40.199      29.169      21.415    
  16.057      12.358      9.7884      8.0013      6.7744      5.9527      5.4163      5.0695      4.8398      4.6771    
  4.5492      4.4358      4.3234      4.2029      4.0688      3.9203      3.7608      3.5967      3.4371      3.2935    
  3.1791      3.1088      3.1021      3.1877      3.4086      3.8254      4.0345      4.9773      6.3699      8.3786    
  11.268      15.459      21.565      30.367      42.975      61.996      89.779      126.79      171.05      218.35    
  263.14      299.75      323.50      331.48      322.94      299.27      263.70      220.75      175.58      133.11    
  97.123      69.500      49.994      36.621      27.045      20.257      15.517      12.212      9.8990      8.2873    
  7.1827      6.4425      5.9527      5.6216      5.3808      5.1842      5.0033      4.8218      4.6308      4.4254    
  4.2053      3.9745      3.7401      3.5112      3.2978      3.1111      2.9625      2.8640      2.8308      2.8867    
  3.0680      3.4274      3.5987      4.4118      5.6189      7.3544      9.8257      13.360      18.438      25.686    
  35.805      50.305      71.299      99.595      134.02      171.44      207.42      237.24      256.84      263.69    
  257.07      238.16      209.71      175.58      140.08      107.13      79.547      58.510      43.453      32.596    
  24.621      18.919      14.898      12.071      10.091      8.7216      7.7955      7.1827      6.7744      6.4834    
  6.2458      6.0197      5.7814      5.5195      5.2309      4.9173      4.5852      4.2450      3.9091      3.5900    
  3.2996      3.0493      2.8491      2.7080      2.6370      2.6539      2.7879      3.0828      3.2154      3.8954    
  4.9149      6.3795      8.4445      11.350      15.452      21.219      29.179      39.933      54.897      75.064    
  99.966      127.54      154.55      177.32      192.58      198.21      193.56      179.54      158.36      133.11    
  107.13      83.304      63.547      48.397      37.113      28.528      22.168      17.584      14.331      12.047    
  10.469      9.4084      8.7216      8.2873      8.0013      7.7794      7.5613      7.3093      7.0045      6.6421    
  6.2267      5.7696      5.2867      4.7972      4.3205      3.8743      3.4734      3.1300      2.8530      2.6490    
  2.5247      2.4914      2.5701      2.7950      2.8919      3.4395      4.2760      5.4824      7.1712      9.5099    
  12.745      17.206      23.273      31.283      41.649      55.186      71.937      90.768      109.56      125.71    
  136.81      141.20      138.33      128.82      114.34      97.123      79.547      63.547      50.221      39.661    
  31.262      24.757      19.916      16.418      13.951      12.259      11.149      10.469      10.091      9.8990    
  9.7884      9.6751      9.4991      9.2247      8.8380      8.3426      7.7551      7.1006      6.4094      5.7130    
  5.0405      4.4164      3.8593      3.3828      2.9954      2.7013      2.5029      2.4047      2.4189      2.5688    
  2.6344      3.0538      3.7169      4.6850      6.0376      7.8868      10.393      13.772      18.276      24.142    
  31.492      40.406      51.079      63.062      75.170      85.782      93.286      96.514      95.037      89.251    
  80.244      69.500      58.510      48.397      39.661      32.246      26.200      21.515      18.038      15.561    
  13.883      12.829      12.259      12.047      12.071      12.212      12.358      12.417      12.321      12.031    
  11.537      10.855      10.020      9.0810      8.0907      7.0998      6.1516      5.2790      4.5050      3.8440    
  3.3034      2.8844      2.5848      2.4025      2.3399      2.4090      2.4466      2.7443      3.2476      4.0015    
  5.0617      6.5011      8.4186      10.945      14.233      18.431      23.620      29.751      36.615      44.000    
  51.391      57.935      62.699      64.962      64.428      61.302      56.210      49.994      43.453      37.113    
  31.262      26.200      22.085      18.926      16.643      15.120      14.237      13.883      13.951      14.331    
  14.898      15.517      16.057      16.397      16.448      16.157      15.515      14.557      13.349      11.980    
  10.540      9.1137      7.7659      6.5416      5.4670      4.5545      3.8068      3.2200      2.7858      2.4945    
  2.3390      2.3194      2.3315      2.5147      2.8742      3.4403      4.2513      5.3539      6.8068      8.6831    
  11.067      14.038      17.638      21.834      26.481      31.303      35.923      39.942      42.923      44.491    
  44.471      42.944      40.199      36.621      32.596      28.528      24.757      21.515      18.926      17.025    
  15.790      15.175      15.120      15.561      16.418      17.584      18.919      20.257      21.415      22.220    
  22.533      22.270      21.420      20.043      18.258      16.218      14.083      11.992      10.047      8.3124    
  6.8152      5.5598      4.5368      3.7302      3.1216      2.6917      2.4231      2.3039      2.2926      2.3679    
  2.5996      3.0044      3.6065      4.4354      5.5252      6.9138      8.6417      10.744      13.233      16.081    
  19.194      22.405      25.480      28.150      30.155      31.297      31.478      30.722      29.169      27.045    
  24.621      22.168      19.916      18.038      16.643      15.790      15.504      15.790      16.643      18.038    
  19.916      22.168      24.621      27.045      29.169      30.722      31.478      31.297      30.155      28.150    
  25.480      22.405      19.194      16.081      13.233      10.744      8.6417      6.9138      5.5252      4.4354    
  3.6065      3.0044      2.5996      2.3679      2.3315      2.3039      2.4231      2.6917      3.1216      3.7302    
  4.5368      5.5598      6.8152      8.3124      10.047      11.992      14.083      16.218      18.258      20.043    
  21.420      22.270      22.533      22.220      21.415      20.257      18.919      17.584      16.418      15.561    
  15.120      15.175      15.790      17.025      18.926      21.515      24.757      28.528      32.596      36.621    
  40.199      42.944      44.471      44.491      42.923      39.942      35.923      31.303      26.481      21.834    
  17.638      14.038      11.067      8.6831      6.8068      5.3539      4.2513      3.4403      2.8742      2.5147    
  2.4466      2.3194      2.3390      2.4945      2.7858      3.2200      3.8068      4.5545      5.4670      6.5416    
  7.7659      9.1137      10.540      11.980      13.349      14.557      15.515      16.157      16.448      16.397    
  16.057      15.517      14.898      14.331      13.951      13.883      14.237      15.120      16.643      18.926    
  22.085      26.200      31.262      37.113      43.453      49.994      56.210      61.302      64.428      64.962    
  62.699      57.935      51.391      44.000      36.615      29.751      23.620      18.431      14.233      10.945    
  8.4186      6.5011      5.0617      4.0015      3.2476      2.7443      2.6344      2.4090      2.3399      2.4025    
  2.5848      2.8844      3.3034      3.8440      4.5050      5.2790      6.1516      7.0998      8.0907      9.0810    
  10.020      10.855      11.537      12.031      12.321      12.417      12.358      12.212      12.071      12.047    
  12.259      12.829      13.883      15.561      18.038      21.515      26.200      32.246      39.661      48.397    
  58.510      69.500      80.244      89.251      95.037      96.514      93.286      85.782      75.170      63.062    
  51.079      40.406      31.492      24.142      18.276      13.772      10.393      7.8868      6.0376      4.6850    
  3.7169      3.0538      2.8919      2.5688      2.4189      2.4047      2.5029      2.7013      2.9954      3.3828    
  3.8593      4.4164      5.0405      5.7130      6.4094      7.1006      7.7551      8.3426      8.8380      9.2247    
  9.4991      9.6751      9.7884      9.8990      10.091      10.469      11.149      12.259      13.951      16.418    
  19.916      24.757      31.262      39.661      50.221      63.547      79.547      97.123      114.34      128.82    
  138.33      141.20      136.81      125.71      109.56      90.768      71.937      55.186      41.649      31.283    
  23.273      17.206      12.745      9.5099      7.1712      5.4824      4.2760      3.4395      3.2154      2.7950    
  2.5701      2.4914      2.5247      2.6490      2.8530      3.1300      3.4734      3.8743      4.3205      4.7972    
  5.2867      5.7696      6.2267      6.6421      7.0045      7.3093      7.5613      7.7794      8.0013      8.2873    
  8.7216      9.4084      10.469      12.047      14.331      17.584      22.168      28.528      37.113      48.397    
  63.547      83.304      107.13      133.11      158.36      179.54      193.56      198.21      192.58      177.32    
  154.55      127.54      99.966      75.064      54.897      39.933      29.179      21.219      15.452      11.350    
  8.4445      6.3795      4.9149      3.8954      3.5987      3.0828      2.7879      2.6539      2.6370      2.7080    
  2.8491      3.0493      3.2996      3.5900      3.9091      4.2450      4.5852      4.9173      5.2309      5.5195    
  5.7814      6.0197      6.2458      6.4834      6.7744      7.1827      7.7955      8.7216      10.091      12.071    
  14.898      18.919      24.621      32.596      43.453      58.510      79.547      107.13      140.08      175.58    
  209.71      238.16      257.07      263.69      256.84      237.24      207.42      171.44      134.02      99.595    
  71.299      50.305      35.805      25.686      18.438      13.360      9.8257      7.3544      5.6189      4.4118    
  4.0345      3.4274      3.0680      2.8867      2.8308      2.8640      2.9625      3.1111      3.2978      3.5112    
  3.7401      3.9745      4.2053      4.4254      4.6308      4.8218      5.0033      5.1842      5.3808      5.6216    
  5.9527      6.4425      7.1827      8.2873      9.8990      12.212      15.517      20.257      27.045      36.621    
  49.994      69.500      97.123      133.11      175.58      220.75      263.70      299.27      322.94      331.48    
  323.50      299.75      263.14      218.35      171.05      126.79      89.779      61.996      42.975      30.367    
  21.565      15.459      11.268      8.3786      6.3699      4.9773      4.5162      3.8254      3.4086      3.1877    
  3.1021      3.1088      3.1791      3.2935      3.4371      3.5967      3.7608      3.9203      4.0688      4.2029    
  4.3234      4.4358      4.5492      4.6771      4.8398      5.0695      5.4163      5.9527      6.7744      8.0013    
  9.7884      12.358      16.057      21.415      29.169      40.199      56.210      80.244      114.34      158.36    
  209.71      263.70      314.57      356.44      384.24      394.41      385.39      358.00      315.43      262.88    
  206.75      153.51      108.31      73.898      50.235      34.932      24.638      17.538      12.710      9.4172    
  7.1475      5.5799      5.0366      4.2734      3.8088      3.5564      3.4493      3.4387      3.4911      3.5830    
  3.6965      3.8166      3.9313      4.0321      4.1144      4.1781      4.2275      4.2718      4.3236      4.3994    
  4.5226      4.7282      5.0695      5.6216      6.4834      7.7794      9.6751      12.417      16.397      22.220    
  30.722      42.944      61.302      89.251      128.82      179.54      238.16      299.27      356.44      403.23    
  434.18      445.49      435.55      405.25      358.04      299.49      236.51      176.20      124.39      84.475    
  56.801      39.030      27.425      19.465      14.080      10.430      7.9285      6.2061      5.5912      4.7710    
  4.2696      3.9946      3.8734      3.8524      3.8939      3.9706      4.0617      4.1502      4.2233      4.2730    
  4.2966      4.2967      4.2809      4.2612      4.2529      4.2749      4.3525      4.5226      4.8398      5.3808    
  6.2458      7.5613      9.4991      12.321      16.448      22.533      31.478      44.471      64.428      95.037    
  138.33      193.56      257.07      322.94      384.24      434.18      467.05      478.93      468.22      435.96    
  385.81      323.55      256.36      191.66      135.67      92.181      61.793      42.262      29.692      21.105    
  15.300      11.375      8.6915      6.8455      6.1974      5.3373      4.8093      4.5172      4.3848      4.3552    
  4.3875      4.4511      4.5221      4.5814      4.6152      4.6158      4.5822      4.5195      4.4386      4.3543    
  4.2843      4.2490      4.2749      4.3994      4.6771      5.1842      6.0197      7.3093      9.2247      12.031    
  16.157      22.270      31.297      44.491      64.962      96.514      141.20      198.21      263.69      331.48    
  394.41      445.49      478.93      490.80      479.61      446.57      395.43      332.08      263.72      197.77    
  140.53      95.871      64.512      44.273      31.255      22.353      16.320      12.234      9.4366      7.5094    
  6.9289      6.0440      5.4926      5.1780      5.0242      4.9741      4.9858      5.0269      5.0711      5.0968    
  5.0884      5.0377      4.9448      4.8172      4.6685      4.5164      4.3809      4.2843      4.2529      4.3236    
  4.5492      5.0033      5.7814      7.0045      8.8380      11.537      15.515      21.420      30.155      42.923    
  62.699      93.286      136.81      192.58      256.84      323.50      385.39      435.55      468.22      479.61    
  468.41      435.90      385.90      324.18      257.76      193.80      138.35      95.089      64.650      44.889    
  32.031      23.177      17.149      13.045      10.222      8.2673      7.9603      7.0587      6.4712      6.1064    
  5.8943      5.7836      5.7365      5.7225      5.7145      5.6886      5.6263      5.5173      5.3606      5.1645    
  4.9444      4.7208      4.5164      4.3543      4.2612      4.2718      4.4358      4.8218      5.5195      6.6421    
  8.3426      10.855      14.557      20.043      28.150      39.942      57.935      85.782      125.71      177.32    
  237.24      299.75      358.00      405.25      435.96      446.57      435.90      405.32      358.53      301.07    
  239.52      180.56      129.70      90.181      62.393      44.204      32.094      23.674      17.906      13.952    
  11.210      9.2918      9.6201      8.6969      8.0340      7.5532      7.2004      6.9408      6.7500      6.6064    
  6.4864      6.3650      6.2197      6.0351      5.8055      5.5361      5.2418      4.9444      4.6685      4.4386    
  4.2809      4.2275      4.3234      4.6308      5.2309      6.2267      7.7551      10.020      13.349      18.258    
  25.480      35.923      51.391      75.170      109.56      154.55      207.42      263.14      315.43      358.04    
  385.81      395.43      385.90      358.53      316.82      265.86      211.67      160.18      116.15      82.200    
  58.379      42.572      31.702      24.095      18.859      15.244      12.711      10.910      12.447      11.479    
  10.662      9.9408      9.2951      8.7232      8.2303      7.8161      7.4686      7.1649      6.8771      6.5803    
  6.2583      5.9073      5.5361      5.1645      4.8172      4.5195      4.2967      4.1781      4.2029      4.4254    
  4.9173      5.7696      7.1006      9.0810      11.980      16.218      22.405      31.303      44.000      63.062    