TiO2                                    
   1.00000000000000     
     4.584000    0.000000    0.000000
     0.000000    4.584000    0.000000
     0.000000    0.000000    2.953000
   Ti   O 
     2     4
Direct
  0.000000  0.000000  0.000000
  0.500000  0.500000  0.500000
  0.196209  0.803791  0.500000
  0.803791  0.196209  0.500000
  0.303791  0.303791  0.000000
  0.696209  0.696209  0.000000
 
   56   56   32
 0.93124954558E+03 0.90436895980E+03 0.82807419568E+03 0.71438164026E+03 0.58013352444E+03
 0.44307380807E+03 0.31803879193E+03 0.21449241945E+03 0.13602896668E+03 0.81528246995E+02
 0.47020964092E+02 0.27370664814E+02 0.17385359270E+02 0.12446706159E+02 0.96201092123E+01
 0.79602811803E+01 0.69288892361E+01 0.61974445559E+01 0.55912111850E+01 0.50365609486E+01
 0.45162273637E+01 0.40345335378E+01 0.35987044479E+01 0.32154030254E+01 0.28918771636E+01
 0.26343515779E+01 0.24465700334E+01 0.23314971550E+01 0.22925544515E+01 0.23314971550E+01
 0.24465700334E+01 0.26343515779E+01 0.28918771636E+01 0.32154030254E+01 0.35987044479E+01
 0.40345335378E+01 0.45162273637E+01 0.50365609486E+01 0.55912111850E+01 0.61974445559E+01
 0.69288892361E+01 0.79602811803E+01 0.96201092123E+01 0.12446706159E+02 0.17385359270E+02
 0.27370664814E+02 0.47020964092E+02 0.81528246995E+02 0.13602896668E+03 0.21449241945E+03
 0.31803879193E+03 0.44307380807E+03 0.58013352444E+03 0.71438164026E+03 0.82807419568E+03
 0.90436895980E+03 0.90436895980E+03 0.87834863443E+03 0.80450706381E+03 0.69456087663E+03
 0.56478239342E+03 0.43222540041E+03 0.31112319789E+03 0.21059331204E+03 0.13419077980E+03
 0.80982921844E+02 0.47264900295E+02 0.28111581707E+02 0.18437048200E+02 0.13654509750E+02
 0.10909613994E+02 0.92917861476E+01 0.82673411216E+01 0.75094155007E+01 0.68454890358E+01
 0.62061417442E+01 0.55798656506E+01 0.49773218613E+01 0.44118218355E+01 0.38953662299E+01
 0.34395140936E+01 0.30538332142E+01 0.27442998928E+01 0.25146968282E+01 0.23678500658E+01
 0.23039439973E+01 0.23193525984E+01 0.24089687885E+01 0.25687770905E+01 0.27950345991E+01
 0.30828214683E+01 0.34273773316E+01 0.38253572202E+01 0.42734462622E+01 0.47710347222E+01
 0.53373089094E+01 0.60440014274E+01 0.70586702690E+01 0.86969150195E+01 0.11479095528E+02
 0.16299664480E+02 0.25921957053E+02 0.44812064631E+02 0.78042015046E+02 0.13068372421E+03
 0.20670425960E+03 0.30728252009E+03 0.42894918350E+03 0.56244620094E+03 0.69323644962E+03
 0.80396143609E+03 0.87821093802E+03 0.82807419568E+03 0.80450706381E+03 0.73734098802E+03
 0.63731358741E+03 0.51920953516E+03 0.39844394970E+03 0.28787437740E+03 0.19580899812E+03
 0.12562611310E+03 0.76679698693E+02 0.45737648054E+02 0.28306133166E+02 0.19596854378E+02
 0.15237070119E+02 0.12711199628E+02 0.11209526324E+02 0.10222177997E+02 0.94365723171E+01
 0.86914543568E+01 0.79285389037E+01 0.71475381905E+01 0.63699283189E+01 0.56189278830E+01
 0.49148808800E+01 0.42759660471E+01 0.37169260983E+01 0.32476485857E+01 0.28741711548E+01
 0.25996283959E+01 0.24230887562E+01 0.23390231611E+01 0.23398752335E+01 0.24188849007E+01
 0.25701387149E+01 0.27879097677E+01 0.30679952484E+01 0.34086479648E+01 0.38087736776E+01
 0.42696012217E+01 0.48092978471E+01 0.54925630960E+01 0.64711882157E+01 0.80340158129E+01
 0.10661514236E+02 0.15133731654E+02 0.23813792559E+02 0.40836891857E+02 0.70936548739E+02
 0.11884905656E+03 0.18827709710E+03 0.28033210851E+03 0.39182953007E+03 0.51425233616E+03
 0.63423089948E+03 0.73581573066E+03 0.80396143609E+03 0.71438164026E+03 0.69456087663E+03
 0.63731358741E+03 0.55184908369E+03 0.45077235765E+03 0.34718627022E+03 0.25205178281E+03
 0.17256593541E+03 0.11183302637E+03 0.69532881095E+02 0.43008496251E+02 0.28319312372E+02
 0.21105005282E+02 0.17397003014E+02 0.15244481007E+02 0.13952180326E+02 0.13045325097E+02
 0.12233698711E+02 0.11374805861E+02 0.10429518970E+02 0.94172058548E+01 0.83785718460E+01
 0.73544038823E+01 0.63794796711E+01 0.54824038872E+01 0.46849562305E+01 0.40015175924E+01
 0.34402694404E+01 0.30043902178E+01 0.26916578294E+01 0.24945270751E+01 0.24024675772E+01
 0.24047459736E+01 0.24914329563E+01 0.26539444564E+01 0.28866908124E+01 0.31876646607E+01
 0.35564389670E+01 0.39946043295E+01 0.45171979850E+01 0.51780441963E+01 0.61064299440E+01
 0.75531577285E+01 0.99407936339E+01 0.13917325215E+02 0.21268766496E+02 0.35626660570E+02
 0.61215033330E+02 0.10222668772E+03 0.16190178833E+03 0.24119068618E+03 0.33731792103E+03
 0.44292111312E+03 0.54647294423E+03 0.63423089948E+03 0.69323644962E+03 0.58013352444E+03
 0.56478239342E+03 0.51920953516E+03 0.45077235765E+03 0.36953214156E+03 0.28596560107E+03
 0.20892018976E+03 0.14435723863E+03 0.95040004220E+02 0.60933563582E+02 0.39936343236E+02
 0.28677557539E+02 0.23290091407E+02 0.20448257768E+02 0.18859379537E+02 0.17906470786E+02
 0.17149012339E+02 0.16319897580E+02 0.15300240951E+02 0.14079630771E+02 0.12710491179E+02
 0.11268096231E+02 0.98257009780E+01 0.84445052190E+01 0.71712095780E+01 0.60375775585E+01
 0.50617165354E+01 0.42512665299E+01 0.36064652351E+01 0.31216010965E+01 0.27858226819E+01
 0.25848109611E+01 0.25028856648E+01 0.25247014144E+01 0.26370231634E+01 0.28308475781E+01
 0.31020587748E+01 0.34493355908E+01 0.38733968533E+01 0.43847962595E+01 0.50242289913E+01
 0.58942906151E+01 0.72003728369E+01 0.92951094520E+01 0.12711788112E+02 0.18604615149E+02
 0.29910809499E+02 0.50246350062E+02 0.83151200385E+02 0.13130655338E+03 0.19546247669E+03
 0.27332616027E+03 0.35891652194E+03 0.44292111312E+03 0.51425233616E+03 0.56244620094E+03
 0.44307380807E+03 0.43222540041E+03 0.39844394970E+03 0.34718627022E+03 0.28596560107E+03
 0.22267893100E+03 0.16412040995E+03 0.11503332173E+03 0.77781664879E+02 0.52499075779E+02
 0.37521878026E+02 0.29988514288E+02 0.26556765860E+02 0.24864270687E+02 0.24095367357E+02
 0.23673973773E+02 0.23177420816E+02 0.22352700646E+02 0.21105496076E+02 0.19465470171E+02
 0.17538178773E+02 0.15458917532E+02 0.13359589705E+02 0.11350095496E+02 0.95099079008E+01
 0.78867674393E+01 0.65010742414E+01 0.53539391371E+01 0.44354497657E+01 0.37302477093E+01
 0.32200368195E+01 0.28843737553E+01 0.27013402276E+01 0.26490142142E+01 0.27079658637E+01
 0.28639529464E+01 0.31088194256E+01 0.34387393328E+01 0.38524148527E+01 0.43552321175E+01
 0.49740983089E+01 0.57835712361E+01 0.69407539854E+01 0.87232305945E+01 0.11557372341E+02
 0.16123765117E+02 0.24433740118E+02 0.39460054597E+02 0.64081225037E+02 0.10042830232E+03
 0.14907163074E+03 0.20822680296E+03 0.27332616027E+03 0.33731792103E+03 0.39182953007E+03
 0.42894918350E+03 0.31803879193E+03 0.31112319789E+03 0.28787437740E+03 0.25205178281E+03
 0.20892018976E+03 0.16412040995E+03 0.12264368745E+03 0.88115756201E+02 0.62441422973E+02
 0.45765929904E+02 0.36706296093E+02 0.32824384720E+02 0.31450727263E+02 0.31295364594E+02
 0.31702265561E+02 0.32093585098E+02 0.32030766759E+02 0.31254854888E+02 0.29692135447E+02
 0.27424608136E+02 0.24637970346E+02 0.21565102378E+02 0.18437812406E+02 0.15451535070E+02
 0.12744629813E+02 0.10392972739E+02 0.84185671160E+01 0.68068444658E+01 0.55252004439E+01
 0.45367708144E+01 0.38068438931E+01 0.33033653609E+01 0.29954040239E+01 0.28529755210E+01
 0.28490756346E+01 0.29624621590E+01 0.31791348871E+01 0.34910938053E+01 0.38938915754E+01
 0.43874932867E+01 0.49857552487E+01 0.57364859544E+01 0.67499874762E+01 0.82303211669E+01
 0.10499061007E+02 0.14000015791E+02 0.19765468753E+02 0.30036946028E+02 0.47096100701E+02
 0.72608420823E+02 0.10702893675E+03 0.14907163074E+03 0.19546247669E+03 0.24119068618E+03
 0.28033210851E+03 0.30728252009E+03 0.21449241945E+03 0.21059331204E+03 0.19580899812E+03
 0.17256593541E+03 0.14435723863E+03 0.11503332173E+03 0.88115756201E+02 0.66246277859E+02
 0.50823941224E+02 0.41868152868E+02 0.38148793572E+02 0.37606491115E+02 0.38629964401E+02
 0.40512245697E+02 0.42571871005E+02 0.44204067219E+02 0.44888887384E+02 0.44272864457E+02
 0.42262288828E+02 0.39029724841E+02 0.34931615852E+02 0.30366974623E+02 0.25686447845E+02
 0.21219489983E+02 0.17205674518E+02 0.13771805769E+02 0.10944732429E+02 0.86831490169E+01
 0.69138245765E+01 0.55597654166E+01 0.45545058337E+01 0.38440351054E+01 0.33827659349E+01
 0.31299552857E+01 0.30493272651E+01 0.31110591142E+01 0.32935447783E+01 0.35829881902E+01
 0.39706433221E+01 0.44511155904E+01 0.50269204527E+01 0.57225082923E+01 0.66063794119E+01
 0.78161046128E+01 0.95780545421E+01 0.12210640526E+02 0.16154543722E+02 0.22670763732E+02
 0.33525832613E+02 0.50033049063E+02 0.72608420823E+02 0.10042830232E+03 0.13130655338E+03
 0.16190178833E+03 0.18827709710E+03 0.20670425960E+03 0.13602896668E+03 0.13419077980E+03
 0.12562611310E+03 0.11183302637E+03 0.95040004220E+02 0.77781664879E+02 0.62441422973E+02
 0.50823941224E+02 0.43823689243E+02 0.41273481027E+02 0.42044149536E+02 0.44753009373E+02
 0.48743025037E+02 0.53518744675E+02 0.58379015603E+02 0.62393363823E+02 0.64649938151E+02
 0.64511948387E+02 0.61793286661E+02 0.56800909687E+02 0.50235120959E+02 0.42974591201E+02
 0.35804946858E+02 0.29178507133E+02 0.23272949381E+02 0.18276339276E+02 0.14233409188E+02
 0.11067036057E+02 0.86416888334E+01 0.68151631063E+01 0.54669883178E+01 0.45049966546E+01
 0.38592558678E+01 0.34734304652E+01 0.32996338023E+01 0.32977718730E+01 0.34370965170E+01
 0.36964629111E+01 0.40616924199E+01 0.45221283643E+01 0.50711496737E+01 0.57145366625E+01
 0.64863990429E+01 0.74685911326E+01 0.88071072857E+01 0.10716530337E+02 0.13463831166E+02
 0.17456507701E+02 0.23790358452E+02 0.33525832613E+02 0.47096100701E+02 0.64081225037E+02
 0.83151200385E+02 0.10222668772E+03 0.11884905656E+03 0.13068372421E+03 0.81528246995E+02
 0.80982921844E+02 0.76679698693E+02 0.69532881095E+02 0.60933563582E+02 0.52499075779E+02
 0.45765929904E+02 0.41868152868E+02 0.41273481027E+02 0.43667315765E+02 0.48263214954E+02
 0.54757262229E+02 0.63090452141E+02 0.72648013229E+02 0.82199604480E+02 0.90180702709E+02
 0.95089442526E+02 0.95870651461E+02 0.92180763864E+02 0.84474947732E+02 0.73898141819E+02
 0.61995976770E+02 0.50304694866E+02 0.39933443008E+02 0.31283050246E+02 0.24141793161E+02
 0.18430800964E+02 0.14037562859E+02 0.10743608435E+02 0.83124387260E+01 0.65415910230E+01
 0.52789918596E+01 0.44163604637E+01 0.38743337676E+01 0.35899544049E+01 0.35111649365E+01
 0.35966769947E+01 0.38165971476E+01 0.41501638075E+01 0.45814352743E+01 0.50968314186E+01
 0.56886155633E+01 0.63650387073E+01 0.71648623035E+01 0.81709870640E+01 0.95159956388E+01
 0.11372497784E+02 0.13925255930E+02 0.17456507701E+02 0.22670763732E+02 0.30036946028E+02
 0.39460054597E+02 0.50246350062E+02 0.61215033330E+02 0.70936548739E+02 0.78042015046E+02
 0.47020964092E+02 0.47264900295E+02 0.45737648054E+02 0.43008496251E+02 0.39936343236E+02
 0.37521878026E+02 0.36706296093E+02 0.38148793572E+02 0.42044149536E+02 0.48263214954E+02
 0.56985290577E+02 0.68770649608E+02 0.83479974061E+02 0.99944645371E+02 0.11615416531E+03
 0.12970440380E+03 0.13835380116E+03 0.14052924769E+03 0.13567454382E+03 0.12438568760E+03
 0.10830635791E+03 0.89779116548E+02 0.71299053968E+02 0.54897230794E+02 0.41648760278E+02
 0.31491885786E+02 0.23619788837E+02 0.17637797267E+02 0.13233128578E+02 0.10047401602E+02
 0.77659248201E+01 0.61515903012E+01 0.50405345507E+01 0.43205409704E+01 0.39090630296E+01
 0.37401227351E+01 0.37608014603E+01 0.39313132426E+01 0.42232682408E+01 0.46152112279E+01
 0.50883821184E+01 0.56262851953E+01 0.62197447428E+01 0.68770770607E+01 0.76353945164E+01
 0.85668086636E+01 0.97738956566E+01 0.11372497784E+02 0.13463831166E+02 0.16154543722E+02
 0.19765468753E+02 0.24433740118E+02 0.29910809499E+02 0.35626660570E+02 0.40836891857E+02
 0.44812064631E+02 0.27370664814E+02 0.28111581707E+02 0.28306133166E+02 0.28319312372E+02
 0.28677557539E+02 0.29988514288E+02 0.32824384720E+02 0.37606491115E+02 0.44753009374E+02
 0.54757262229E+02 0.68770649608E+02 0.87540744264E+02 0.11050218233E+03 0.13570738246E+03
 0.16018279987E+03 0.18056458447E+03 0.19380313755E+03 0.19776771371E+03 0.19166018980E+03
 0.17619523865E+03 0.15351211793E+03 0.12679081697E+03 0.99595013036E+02 0.75064358299E+02
 0.55185812608E+02 0.40406305357E+02 0.29750638751E+02 0.21834425189E+02 0.16080908275E+02
 0.11991838268E+02 0.91136531362E+01 0.70998191104E+01 0.57129801316E+01 0.47971999124E+01
 0.42449908066E+01 0.39744933536E+01 0.39203343218E+01 0.40321064536E+01 0.42730167543E+01
 0.46158104529E+01 0.50377298416E+01 0.55172584555E+01 0.60350710492E+01 0.65802797068E+01
 0.71596284851E+01 0.78038577262E+01 0.85668086636E+01 0.95159956388E+01 0.10716530337E+02
 0.12210640526E+02 0.14000015791E+02 0.16123765117E+02 0.18604615149E+02 0.21268766496E+02
 0.23813792559E+02 0.25921957053E+02 0.17385359270E+02 0.18437048200E+02 0.19596854378E+02
 0.21105005282E+02 0.23290091407E+02 0.26556765860E+02 0.31450727263E+02 0.38629964401E+02
 0.48743025037E+02 0.63090452141E+02 0.83479974061E+02 0.11050218233E+03 0.14298221804E+03
 0.17804434631E+03 0.21167077122E+03 0.23952132944E+03 0.25775803422E+03 0.26371686956E+03
 0.25636497470E+03 0.23651481055E+03 0.20675433292E+03 0.17104975690E+03 0.13401783698E+03
 0.99966107896E+02 0.71936703619E+02 0.51079436487E+02 0.36615390737E+02 0.26481024653E+02
 0.19193898526E+02 0.14083002383E+02 0.10540013959E+02 0.80906943719E+01 0.64093889037E+01
 0.52867082411E+01 0.45852110945E+01 0.42053267839E+01 0.40688068555E+01 0.41144384627E+01
 0.42966362525E+01 0.45821714807E+01 0.49448496256E+01 0.53606453912E+01 0.58054846007E+01
 0.62583235539E+01 0.67080416956E+01 0.71596284851E+01 0.76353945164E+01 0.81709870640E+01
 0.88071072857E+01 0.95780545421E+01 0.10499061007E+02 0.11557372341E+02 0.12711788112E+02
 0.13917325215E+02 0.15133731654E+02 0.16299664480E+02 0.12446706159E+02 0.13654509750E+02
 0.15237070119E+02 0.17397003014E+02 0.20448257768E+02 0.24864270687E+02 0.31295364594E+02
 0.40512245697E+02 0.53518744675E+02 0.72648013229E+02 0.99944645371E+02 0.13570738246E+03
 0.17804434631E+03 0.22310756560E+03 0.26586192958E+03 0.30106508673E+03 0.32417879983E+03
 0.33208097243E+03 0.32354868746E+03 0.29948941324E+03 0.26287677530E+03 0.21834677300E+03
 0.17143906806E+03 0.12754464790E+03 0.90767874131E+02 0.63062247378E+02 0.43999768115E+02
 0.31302573924E+02 0.22404764157E+02 0.16217963921E+02 0.11979664690E+02 0.90810397064E+01
 0.71005978452E+01 0.57695729130E+01 0.49172889155E+01 0.44253928261E+01 0.42029119707E+01
 0.41780835286E+01 0.42967004354E+01 0.45195255974E+01 0.48172171646E+01 0.51645023301E+01
 0.55361148052E+01 0.59072539578E+01 0.62583235539E+01 0.65802797068E+01 0.68770770607E+01
 0.71648623035E+01 0.74685911326E+01 0.78161046128E+01 0.82303211669E+01 0.87232305945E+01
 0.92951094520E+01 0.99407936339E+01 0.10661514236E+02 0.11479095528E+02 0.96201092123E+01
 0.10909613994E+02 0.12711199628E+02 0.15244481007E+02 0.18859379537E+02 0.24095367357E+02
 0.31702265561E+02 0.42571871005E+02 0.58379015603E+02 0.82199604480E+02 0.11615416531E+03
 0.16018279987E+03 0.21167077122E+03 0.26586192958E+03 0.31681932009E+03 0.35853416751E+03
 0.38589666491E+03 0.39543383364E+03 0.38580659057E+03 0.35803797456E+03 0.31542905156E+03
 0.26313931689E+03 0.20742428773E+03 0.15455305590E+03 0.10955758672E+03 0.75170266078E+02
 0.51391044785E+02 0.35922714994E+02 0.25480026820E+02 0.18257715365E+02 0.13349421161E+02
 0.10020079063E+02 0.77550818060E+01 0.62266987851E+01 0.52308697174E+01 0.46307608488E+01
 0.43234456566E+01 0.42275375620E+01 0.42808820310E+01 0.44386201067E+01 0.46684512002E+01
 0.49443948419E+01 0.52418201139E+01 0.55361148052E+01 0.58054846007E+01 0.60350710492E+01
 0.62197447428E+01 0.63650387073E+01 0.64863990429E+01 0.66063794119E+01 0.67499874762E+01
 0.69407539854E+01 0.72003728369E+01 0.75531577285E+01 0.80340158129E+01 0.86969150195E+01
 0.79602811803E+01 0.92917861476E+01 0.11209526324E+02 0.13952180326E+02 0.17906470786E+02
 0.23673973773E+02 0.32093585098E+02 0.44204067219E+02 0.62393363823E+02 0.90180702709E+02
 0.12970440380E+03 0.18056458447E+03 0.23952132944E+03 0.30106508673E+03 0.35853416751E+03
 0.40532385942E+03 0.43590280351E+03 0.44657140939E+03 0.43596303876E+03 0.40524774881E+03
 0.35800121639E+03 0.29975341082E+03 0.23723566832E+03 0.17731696683E+03 0.12571150387E+03
 0.85782259282E+02 0.57935130360E+02 0.39942431871E+02 0.28150055047E+02 0.20043043101E+02
 0.14557139554E+02 0.10854734977E+02 0.83426278907E+01 0.66420843178E+01 0.55195218569E+01
 0.48218319934E+01 0.44357558178E+01 0.42718020540E+01 0.42611892738E+01 0.43543173078E+01
 0.45163523429E+01 0.47208273669E+01 0.49443948419E+01 0.51645023301E+01 0.53606453912E+01
 0.55172584555E+01 0.56262851953E+01 0.56886155633E+01 0.57145366625E+01 0.57225082923E+01
 0.57364859543E+01 0.57835712361E+01 0.58942906151E+01 0.61064299440E+01 0.64711882157E+01
 0.70586702690E+01 0.69288892361E+01 0.82673411216E+01 0.10222177997E+02 0.13045325097E+02
 0.17149012339E+02 0.23177420816E+02 0.32030766759E+02 0.44888887384E+02 0.64649938151E+02
 0.95089442526E+02 0.13835380116E+03 0.19380313755E+03 0.25775803422E+03 0.32417879983E+03
 0.38589666491E+03 0.43590280351E+03 0.46840723672E+03 0.47961450795E+03 0.46821525018E+03
 0.43554573081E+03 0.38539308429E+03 0.32350380008E+03 0.25684471583E+03 0.19258438666E+03
 0.13681352352E+03 0.93286024344E+02 0.62699128271E+02 0.42922952922E+02 0.30155334960E+02
 0.21420224060E+02 0.15515354687E+02 0.11536796671E+02 0.88380215526E+01 0.70045201256E+01
 0.57813696292E+01 0.50032710864E+01 0.45491611078E+01 0.43235539401E+01 0.42529021721E+01
 0.42842537629E+01 0.43809463526E+01 0.45163523429E+01 0.46684512002E+01 0.48172171646E+01
 0.49448496256E+01 0.50377298416E+01 0.50883821184E+01 0.50968314186E+01 0.50711496737E+01
 0.50269204527E+01 0.49857552487E+01 0.49740983089E+01 0.50242289913E+01 0.51780441963E+01
 0.54925630960E+01 0.60440014274E+01 0.61974445559E+01 0.75094155007E+01 0.94365723171E+01
 0.12233698711E+02 0.16319897580E+02 0.22352700646E+02 0.31254854888E+02 0.44272864457E+02
 0.64511948387E+02 0.95870651461E+02 0.14052924769E+03 0.19776771371E+03 0.26371686956E+03
 0.33208097243E+03 0.39543383364E+03 0.44657140939E+03 0.47961450795E+03 0.49079603415E+03
 0.47892615617E+03 0.44549437306E+03 0.39441152533E+03 0.33148431884E+03 0.26369146496E+03
 0.19821466957E+03 0.14120239523E+03 0.96513950060E+02 0.64961692780E+02 0.44490692675E+02
 0.31297094432E+02 0.22270111557E+02 0.16156801192E+02 0.12030692373E+02 0.92247127617E+01
 0.73093327614E+01 0.60197097415E+01 0.51841689468E+01 0.46770686747E+01 0.43993840225E+01
 0.42749006051E+01 0.42490051247E+01 0.42842537629E+01 0.43543173078E+01 0.44386201067E+01
 0.45195255974E+01 0.45821714807E+01 0.46158104529E+01 0.46152112279E+01 0.45814352743E+01
 0.45221283643E+01 0.44511155904E+01 0.43874932867E+01 0.43552321175E+01 0.43847962594E+01
 0.45171979850E+01 0.48092978471E+01 0.53373089094E+01 0.55912111850E+01 0.68454890358E+01
 0.86914543568E+01 0.11374805861E+02 0.15300240951E+02 0.21105496076E+02 0.29692135447E+02
 0.42262288828E+02 0.61793286661E+02 0.92180763864E+02 0.13567454382E+03 0.19166018980E+03
 0.25636497470E+03 0.32354868746E+03 0.38580659057E+03 0.43596303876E+03 0.46821525018E+03
 0.47892615617E+03 0.46705151308E+03 0.43418321463E+03 0.38424385322E+03 0.32294383382E+03
 0.25707162889E+03 0.19356419820E+03 0.13832705247E+03 0.95037405504E+02 0.64427633365E+02
 0.44471329509E+02 0.31478010727E+02 0.22532610522E+02 0.16447939973E+02 0.12320793147E+02
 0.94991015523E+01 0.75613369575E+01 0.62457654515E+01 0.53808089669E+01 0.48397508024E+01
 0.45225504351E+01 0.43524745966E+01 0.42749006051E+01 0.42529021721E+01 0.42611892738E+01
 0.42808820310E+01 0.42967004354E+01 0.42966362525E+01 0.42730167543E+01 0.42232682408E+01
 0.41501638075E+01 0.40616924199E+01 0.39706433221E+01 0.38938915754E+01 0.38524148526E+01
 0.38733968533E+01 0.39946043295E+01 0.42696012217E+01 0.47710347222E+01 0.50365609486E+01
 0.62061417442E+01 0.79285389037E+01 0.10429518970E+02 0.14079630771E+02 0.19465470171E+02
 0.27424608136E+02 0.39029724841E+02 0.56800909687E+02 0.84474947732E+02 0.12438568760E+03
 0.17619523865E+03 0.23651481055E+03 0.29948941324E+03 0.35803797456E+03 0.40524774881E+03
 0.43554573081E+03 0.44549437306E+03 0.43418321463E+03 0.40322715154E+03 0.35643687450E+03
 0.29927483956E+03 0.23815505499E+03 0.17953971609E+03 0.12882460020E+03 0.89251107840E+02
 0.61302144704E+02 0.42943947249E+02 0.30722052146E+02 0.22219768769E+02 0.16397295550E+02
 0.12417055912E+02 0.96751056076E+01 0.77794167208E+01 0.64833808970E+01 0.56215784813E+01
 0.50694646769E+01 0.47282264125E+01 0.45225504351E+01 0.43993840225E+01 0.43235539401E+01
 0.42718020540E+01 0.42275375620E+01 0.41780835286E+01 0.41144384627E+01 0.40321064536E+01
 0.39313132426E+01 0.38165971476E+01 0.36964629111E+01 0.35829881902E+01 0.34910938053E+01
 0.34387393328E+01 0.34493355908E+01 0.35564389670E+01 0.38087736776E+01 0.42734462622E+01
 0.45162273637E+01 0.55798656506E+01 0.71475381905E+01 0.94172058548E+01 0.12710491179E+02
 0.17538178773E+02 0.24637970346E+02 0.34931615852E+02 0.50235120959E+02 0.73898141819E+02
 0.10830635791E+03 0.15351211793E+03 0.20675433292E+03 0.26287677530E+03 0.31542905156E+03
 0.35800121639E+03 0.38539308429E+03 0.39441152533E+03 0.38424385322E+03 0.35643687450E+03
 0.31456630066E+03 0.26370084433E+03 0.20970610303E+03 0.15836302309E+03 0.11433691153E+03
 0.80243778863E+02 0.56210265460E+02 0.40199115985E+02 0.29168799283E+02 0.21414574497E+02
 0.16056938873E+02 0.12358181916E+02 0.97883632640E+01 0.80012601112E+01 0.67743617430E+01
 0.59527202488E+01 0.54163487430E+01 0.50694646769E+01 0.48397508024E+01 0.46770686747E+01
 0.45491611078E+01 0.44357558178E+01 0.43234456566E+01 0.42029119707E+01 0.40688068555E+01
 0.39203343218E+01 0.37608014603E+01 0.35966769947E+01 0.34370965170E+01 0.32935447783E+01
 0.31791348871E+01 0.31088194256E+01 0.31020587748E+01 0.31876646607E+01 0.34086479648E+01
 0.38253572202E+01 0.40345335378E+01 0.49773218613E+01 0.63699283189E+01 0.83785718460E+01
 0.11268096231E+02 0.15458917532E+02 0.21565102378E+02 0.30366974623E+02 0.42974591201E+02
 0.61995976770E+02 0.89779116548E+02 0.12679081697E+03 0.17104975690E+03 0.21834677300E+03
 0.26313931689E+03 0.29975341082E+03 0.32350380008E+03 0.33148431884E+03 0.32294383382E+03
 0.29927483956E+03 0.26370084433E+03 0.22075380197E+03 0.17558412452E+03 0.13311456584E+03
 0.97123037632E+02 0.69499593849E+02 0.49993929223E+02 0.36621400872E+02 0.27044954932E+02
 0.20256636780E+02 0.15517453102E+02 0.12211804491E+02 0.98989543370E+01 0.82873174961E+01
 0.71826523594E+01 0.64425147726E+01 0.59527202488E+01 0.56215784813E+01 0.53808089669E+01
 0.51841689468E+01 0.50032710864E+01 0.48218319934E+01 0.46307608488E+01 0.44253928261E+01
 0.42053267839E+01 0.39744933536E+01 0.37401227351E+01 0.35111649365E+01 0.32977718730E+01
 0.31110591142E+01 0.29624621590E+01 0.28639529464E+01 0.28308475781E+01 0.28866908124E+01
 0.30679952484E+01 0.34273773316E+01 0.35987044479E+01 0.44118218355E+01 0.56189278830E+01
 0.73544038823E+01 0.98257009780E+01 0.13359589705E+02 0.18437812406E+02 0.25686447845E+02
 0.35804946858E+02 0.50304694866E+02 0.71299053968E+02 0.99595013036E+02 0.13401783698E+03
 0.17143906806E+03 0.20742428773E+03 0.23723566832E+03 0.25684471583E+03 0.26369146496E+03
 0.25707162889E+03 0.23815505499E+03 0.20970610303E+03 0.17558412452E+03 0.14007768890E+03
 0.10712519139E+03 0.79546870756E+02 0.58509735065E+02 0.43452734012E+02 0.32596364132E+02
 0.24621465384E+02 0.18919306503E+02 0.14897640667E+02 0.12071072049E+02 0.10091181486E+02
 0.87215590919E+01 0.77955385341E+01 0.71826523594E+01 0.67743617430E+01 0.64833808970E+01
 0.62457654515E+01 0.60197097415E+01 0.57813696292E+01 0.55195218569E+01 0.52308697174E+01
 0.49172889155E+01 0.45852110945E+01 0.42449908066E+01 0.39090630296E+01 0.35899544049E+01
 0.32996338023E+01 0.30493272651E+01 0.28490756346E+01 0.27079658637E+01 0.26370231634E+01
 0.26539444564E+01 0.27879097677E+01 0.30828214683E+01 0.32154030254E+01 0.38953662299E+01
 0.49148808800E+01 0.63794796711E+01 0.84445052190E+01 0.11350095496E+02 0.15451535070E+02
 0.21219489983E+02 0.29178507133E+02 0.39933443008E+02 0.54897230794E+02 0.75064358299E+02
 0.99966107896E+02 0.12754464790E+03 0.15455305590E+03 0.17731696683E+03 0.19258438666E+03
 0.19821466957E+03 0.19356419820E+03 0.17953971609E+03 0.15836302309E+03 0.13311456584E+03
 0.10712519139E+03 0.83304470743E+02 0.63546842673E+02 0.48396618696E+02 0.37113491551E+02
 0.28528237842E+02 0.22168075835E+02 0.17584075258E+02 0.14330938561E+02 0.12047109321E+02
 0.10468880647E+02 0.94083503255E+01 0.87215590919E+01 0.82873174961E+01 0.80012601112E+01
 0.77794167208E+01 0.75613369575E+01 0.73093327614E+01 0.70045201256E+01 0.66420843178E+01
 0.62266987851E+01 0.57695729130E+01 0.52867082411E+01 0.47971999124E+01 0.43205409704E+01
 0.38743337676E+01 0.34734304652E+01 0.31299552857E+01 0.28529755210E+01 0.26490142142E+01
 0.25247014144E+01 0.24914329563E+01 0.25701387149E+01 0.27950345991E+01 0.28918771636E+01
 0.34395140936E+01 0.42759660471E+01 0.54824038872E+01 0.71712095780E+01 0.95099079008E+01
 0.12744629813E+02 0.17205674518E+02 0.23272949381E+02 0.31283050246E+02 0.41648760278E+02
 0.55185812608E+02 0.71936703619E+02 0.90767874131E+02 0.10955758672E+03 0.12571150387E+03
 0.13681352352E+03 0.14120239523E+03 0.13832705247E+03 0.12882460020E+03 0.11433691153E+03
 0.97123037632E+02 0.79546870756E+02 0.63546842673E+02 0.50221121370E+02 0.39661289294E+02
 0.31261665450E+02 0.24756771707E+02 0.19916218959E+02 0.16418396774E+02 0.13951233360E+02
 0.12259360890E+02 0.11148837244E+02 0.10468880647E+02 0.10091181486E+02 0.98989543370E+01
 0.97883632640E+01 0.96751056076E+01 0.94991015523E+01 0.92247127617E+01 0.88380215526E+01
 0.83426278907E+01 0.77550818060E+01 0.71005978452E+01 0.64093889037E+01 0.57129801316E+01
 0.50405345507E+01 0.44163604637E+01 0.38592558678E+01 0.33827659349E+01 0.29954040239E+01
 0.27013402276E+01 0.25028856648E+01 0.24047459736E+01 0.24188849007E+01 0.25687770905E+01
 0.26343515779E+01 0.30538332142E+01 0.37169260983E+01 0.46849562305E+01 0.60375775585E+01
 0.78867674393E+01 0.10392972739E+02 0.13771805769E+02 0.18276339276E+02 0.24141793161E+02
 0.31491885786E+02 0.40406305357E+02 0.51079436487E+02 0.63062247378E+02 0.75170266078E+02
 0.85782259282E+02 0.93286024344E+02 0.96513950060E+02 0.95037405504E+02 0.89251107840E+02
 0.80243778863E+02 0.69499593849E+02 0.58509735065E+02 0.48396618696E+02 0.39661289294E+02
 0.32246346924E+02 0.26200370320E+02 0.21515017794E+02 0.18037992729E+02 0.15561434584E+02
 0.13882511724E+02 0.12829229280E+02 0.12259360890E+02 0.12047109321E+02 0.12071072049E+02
 0.12211804491E+02 0.12358181916E+02 0.12417055912E+02 0.12320793147E+02 0.12030692373E+02
 0.11536796671E+02 0.10854734977E+02 0.10020079063E+02 0.90810397064E+01 0.80906943719E+01
 0.70998191104E+01 0.61515903012E+01 0.52789918596E+01 0.45049966546E+01 0.38440351054E+01
 0.33033653609E+01 0.28843737553E+01 0.25848109611E+01 0.24024675772E+01 0.23398752335E+01
 0.24089687885E+01 0.24465700334E+01 0.27442998928E+01 0.32476485857E+01 0.40015175924E+01
 0.50617165354E+01 0.65010742414E+01 0.84185671160E+01 0.10944732429E+02 0.14233409188E+02
 0.18430800964E+02 0.23619788837E+02 0.29750638751E+02 0.36615390737E+02 0.43999768115E+02
 0.51391044785E+02 0.57935130360E+02 0.62699128271E+02 0.64961692780E+02 0.64427633365E+02
 0.61302144704E+02 0.56210265460E+02 0.49993929223E+02 0.43452734012E+02 0.37113491551E+02
 0.31261665450E+02 0.26200370320E+02 0.22085220688E+02 0.18926096860E+02 0.16643268394E+02
 0.15120032084E+02 0.14236704131E+02 0.13882511724E+02 0.13951233360E+02 0.14330938561E+02
 0.14897640667E+02 0.15517453102E+02 0.16056938873E+02 0.16397295550E+02 0.16447939973E+02
 0.16156801192E+02 0.15515354687E+02 0.14557139554E+02 0.13349421161E+02 0.11979664690E+02
 0.10540013959E+02 0.91136531362E+01 0.77659248201E+01 0.65415910230E+01 0.54669883178E+01
 0.45545058337E+01 0.38068438931E+01 0.32200368195E+01 0.27858226819E+01 0.24945270751E+01
 0.23390231611E+01 0.23193525984E+01 0.23314971550E+01 0.25146968282E+01 0.28741711548E+01
 0.34402694404E+01 0.42512665299E+01 0.53539391371E+01 0.68068444658E+01 0.86831490169E+01
 0.11067036057E+02 0.14037562859E+02 0.17637797267E+02 0.21834425189E+02 0.26481024653E+02
 0.31302573924E+02 0.35922714994E+02 0.39942431871E+02 0.42922952922E+02 0.44490692675E+02
 0.44471329509E+02 0.42943947249E+02 0.40199115985E+02 0.36621400872E+02 0.32596364132E+02
 0.28528237842E+02 0.24756771707E+02 0.21515017794E+02 0.18926096860E+02 0.17024946689E+02
 0.15790452300E+02 0.15174700155E+02 0.15120032084E+02 0.15561434584E+02 0.16418396774E+02
 0.17584075258E+02 0.18919306503E+02 0.20256636780E+02 0.21414574497E+02 0.22219768769E+02
 0.22532610522E+02 0.22270111557E+02 0.21420224060E+02 0.20043043101E+02 0.18257715365E+02
 0.16217963921E+02 0.14083002383E+02 0.11991838268E+02 0.10047401602E+02 0.83124387260E+01
 0.68151631063E+01 0.55597654166E+01 0.45367708144E+01 0.37302477093E+01 0.31216010965E+01
 0.26916578294E+01 0.24230887562E+01 0.23039439973E+01 0.22925544515E+01 0.23678500658E+01
 0.25996283959E+01 0.30043902178E+01 0.36064652351E+01 0.44354497657E+01 0.55252004439E+01
 0.69138245765E+01 0.86416888334E+01 0.10743608435E+02 0.13233128578E+02 0.16080908275E+02
 0.19193898526E+02 0.22404764157E+02 0.25480026820E+02 0.28150055047E+02 0.30155334960E+02
 0.31297094432E+02 0.31478010727E+02 0.30722052146E+02 0.29168799283E+02 0.27044954932E+02
 0.24621465384E+02 0.22168075835E+02 0.19916218959E+02 0.18037992729E+02 0.16643268394E+02
 0.15790452300E+02 0.15504122297E+02 0.15790452300E+02 0.16643268394E+02 0.18037992729E+02
 0.19916218959E+02 0.22168075835E+02 0.24621465384E+02 0.27044954932E+02 0.29168799283E+02
 0.30722052146E+02 0.31478010727E+02 0.31297094432E+02 0.30155334960E+02 0.28150055047E+02
 0.25480026820E+02 0.22404764157E+02 0.19193898526E+02 0.16080908275E+02 0.13233128578E+02
 0.10743608435E+02 0.86416888334E+01 0.69138245765E+01 0.55252004439E+01 0.44354497657E+01
 0.36064652351E+01 0.30043902178E+01 0.25996283959E+01 0.23678500658E+01 0.23314971550E+01