   6   6   0   0
  0.1034193E+02  0.4584000E-09  0.4584000E-09  0.2953000E-09  0.5000000E-15
  1.000000000000000E-004
  CAR 
 TiO2                                    
     12.79401241    -55.45058233  301      5.79894145      1.00000000
    -55.451  0.0000E+00  0.0000E+00
    -55.223  0.0000E+00  0.0000E+00
    -54.996  0.0000E+00  0.0000E+00
    -54.768  0.0000E+00  0.0000E+00
    -54.541  0.0000E+00  0.0000E+00
    -54.313  0.0000E+00  0.0000E+00
    -54.086  0.0000E+00  0.0000E+00
    -53.858  0.0000E+00  0.0000E+00
    -53.631  0.0000E+00  0.0000E+00
    -53.403  0.0000E+00  0.0000E+00
    -53.176  0.0000E+00  0.0000E+00
    -52.948  0.0000E+00  0.0000E+00
    -52.721  0.0000E+00  0.0000E+00
    -52.493  0.0000E+00  0.0000E+00
    -52.266  0.1620E+02  0.4000E+01
    -52.038  0.0000E+00  0.4000E+01
    -51.811  0.0000E+00  0.4000E+01
    -51.583  0.0000E+00  0.4000E+01
    -51.356  0.0000E+00  0.4000E+01
    -51.128  0.0000E+00  0.4000E+01
    -50.901  0.0000E+00  0.4000E+01
    -50.673  0.0000E+00  0.4000E+01
    -50.446  0.0000E+00  0.4000E+01
    -50.218  0.0000E+00  0.4000E+01
    -49.991  0.0000E+00  0.4000E+01
    -49.764  0.0000E+00  0.4000E+01
    -49.536  0.0000E+00  0.4000E+01
    -49.309  0.0000E+00  0.4000E+01
    -49.081  0.0000E+00  0.4000E+01
    -48.854  0.0000E+00  0.4000E+01
    -48.626  0.0000E+00  0.4000E+01
    -48.399  0.0000E+00  0.4000E+01
    -48.171  0.0000E+00  0.4000E+01
    -47.944  0.0000E+00  0.4000E+01
    -47.716  0.0000E+00  0.4000E+01
    -47.489  0.0000E+00  0.4000E+01
    -47.261  0.0000E+00  0.4000E+01
    -47.034  0.0000E+00  0.4000E+01
    -46.806  0.0000E+00  0.4000E+01
    -46.579  0.0000E+00  0.4000E+01
    -46.351  0.0000E+00  0.4000E+01
    -46.124  0.0000E+00  0.4000E+01
    -45.896  0.0000E+00  0.4000E+01
    -45.669  0.0000E+00  0.4000E+01
    -45.441  0.0000E+00  0.4000E+01
    -45.214  0.0000E+00  0.4000E+01
    -44.986  0.0000E+00  0.4000E+01
    -44.759  0.0000E+00  0.4000E+01
    -44.531  0.0000E+00  0.4000E+01
    -44.304  0.0000E+00  0.4000E+01
    -44.076  0.0000E+00  0.4000E+01
    -43.849  0.0000E+00  0.4000E+01
    -43.622  0.0000E+00  0.4000E+01
    -43.394  0.0000E+00  0.4000E+01
    -43.167  0.0000E+00  0.4000E+01
    -42.939  0.0000E+00  0.4000E+01
    -42.712  0.0000E+00  0.4000E+01
    -42.484  0.0000E+00  0.4000E+01
    -42.257  0.0000E+00  0.4000E+01
    -42.029  0.0000E+00  0.4000E+01
    -41.802  0.0000E+00  0.4000E+01
    -41.574  0.0000E+00  0.4000E+01
    -41.347  0.0000E+00  0.4000E+01
    -41.119  0.0000E+00  0.4000E+01
    -40.892  0.0000E+00  0.4000E+01
    -40.664  0.0000E+00  0.4000E+01
    -40.437  0.0000E+00  0.4000E+01
    -40.209  0.0000E+00  0.4000E+01
    -39.982  0.0000E+00  0.4000E+01
    -39.754  0.0000E+00  0.4000E+01
    -39.527  0.0000E+00  0.4000E+01
    -39.299  0.0000E+00  0.4000E+01
    -39.072  0.0000E+00  0.4000E+01
    -38.844  0.0000E+00  0.4000E+01
    -38.617  0.0000E+00  0.4000E+01
    -38.389  0.0000E+00  0.4000E+01
    -38.162  0.0000E+00  0.4000E+01
    -37.934  0.0000E+00  0.4000E+01
    -37.707  0.0000E+00  0.4000E+01
    -37.480  0.0000E+00  0.4000E+01
    -37.252  0.0000E+00  0.4000E+01
    -37.025  0.0000E+00  0.4000E+01
    -36.797  0.0000E+00  0.4000E+01
    -36.570  0.0000E+00  0.4000E+01
    -36.342  0.0000E+00  0.4000E+01
    -36.115  0.0000E+00  0.4000E+01
    -35.887  0.0000E+00  0.4000E+01
    -35.660  0.0000E+00  0.4000E+01
    -35.432  0.0000E+00  0.4000E+01
    -35.205  0.0000E+00  0.4000E+01
    -34.977  0.0000E+00  0.4000E+01
    -34.750  0.0000E+00  0.4000E+01
    -34.522  0.0000E+00  0.4000E+01
    -34.295  0.0000E+00  0.4000E+01
    -34.067  0.0000E+00  0.4000E+01
    -33.840  0.0000E+00  0.4000E+01
    -33.612  0.0000E+00  0.4000E+01
    -33.385  0.0000E+00  0.4000E+01
    -33.157  0.0000E+00  0.4000E+01
    -32.930  0.0000E+00  0.4000E+01
    -32.702  0.0000E+00  0.4000E+01
    -32.475  0.0000E+00  0.4000E+01
    -32.247  0.0000E+00  0.4000E+01
    -32.020  0.0000E+00  0.4000E+01
    -31.792  0.0000E+00  0.4000E+01
    -31.565  0.0000E+00  0.4000E+01
    -31.337  0.0000E+00  0.4000E+01
    -31.110  0.0000E+00  0.4000E+01
    -30.883  0.0000E+00  0.4000E+01
    -30.655  0.0000E+00  0.4000E+01
    -30.428  0.0000E+00  0.4000E+01
    -30.200  0.0000E+00  0.4000E+01
    -29.973  0.0000E+00  0.4000E+01
    -29.745  0.0000E+00  0.4000E+01
    -29.518  0.0000E+00  0.4000E+01
    -29.290  0.0000E+00  0.4000E+01
    -29.063  0.0000E+00  0.4000E+01
    -28.835  0.3380E+00  0.4077E+01
    -28.608  0.2803E+01  0.6452E+01
    -28.380  0.1896E+02  0.1573E+02
    -28.153  0.0000E+00  0.1600E+02
    -27.925  0.0000E+00  0.1600E+02
    -27.698  0.0000E+00  0.1600E+02
    -27.470  0.0000E+00  0.1600E+02
    -27.243  0.0000E+00  0.1600E+02
    -27.015  0.0000E+00  0.1600E+02
    -26.788  0.0000E+00  0.1600E+02
    -26.560  0.0000E+00  0.1600E+02
    -26.333  0.0000E+00  0.1600E+02
    -26.105  0.0000E+00  0.1600E+02
    -25.878  0.0000E+00  0.1600E+02
    -25.650  0.0000E+00  0.1600E+02
    -25.423  0.0000E+00  0.1600E+02
    -25.195  0.0000E+00  0.1600E+02
    -24.968  0.0000E+00  0.1600E+02
    -24.741  0.0000E+00  0.1600E+02
    -24.513  0.0000E+00  0.1600E+02
    -24.286  0.0000E+00  0.1600E+02
    -24.058  0.0000E+00  0.1600E+02
    -23.831  0.0000E+00  0.1600E+02
    -23.603  0.0000E+00  0.1600E+02
    -23.376  0.0000E+00  0.1600E+02
    -23.148  0.0000E+00  0.1600E+02
    -22.921  0.0000E+00  0.1600E+02
    -22.693  0.0000E+00  0.1600E+02
    -22.466  0.0000E+00  0.1600E+02
    -22.238  0.0000E+00  0.1600E+02
    -22.011  0.0000E+00  0.1600E+02
    -21.783  0.0000E+00  0.1600E+02
    -21.556  0.0000E+00  0.1600E+02
    -21.328  0.0000E+00  0.1600E+02
    -21.101  0.0000E+00  0.1600E+02
    -20.873  0.0000E+00  0.1600E+02
    -20.646  0.0000E+00  0.1600E+02
    -20.418  0.0000E+00  0.1600E+02
    -20.191  0.0000E+00  0.1600E+02
    -19.963  0.0000E+00  0.1600E+02
    -19.736  0.0000E+00  0.1600E+02
    -19.508  0.0000E+00  0.1600E+02
    -19.281  0.0000E+00  0.1600E+02
    -19.053  0.0000E+00  0.1600E+02
    -18.826  0.0000E+00  0.1600E+02
    -18.599  0.0000E+00  0.1600E+02
    -18.371  0.0000E+00  0.1600E+02
    -18.144  0.0000E+00  0.1600E+02
    -17.916  0.0000E+00  0.1600E+02
    -17.689  0.0000E+00  0.1600E+02
    -17.461  0.0000E+00  0.1600E+02
    -17.234  0.0000E+00  0.1600E+02
    -17.006  0.0000E+00  0.1600E+02
    -16.779  0.0000E+00  0.1600E+02
    -16.551  0.0000E+00  0.1600E+02
    -16.324  0.0000E+00  0.1600E+02
    -16.096  0.0000E+00  0.1600E+02
    -15.869  0.0000E+00  0.1600E+02
    -15.641  0.0000E+00  0.1600E+02
    -15.414  0.0000E+00  0.1600E+02
    -15.186  0.0000E+00  0.1600E+02
    -14.959  0.0000E+00  0.1600E+02
    -14.731  0.0000E+00  0.1600E+02
    -14.504  0.0000E+00  0.1600E+02
    -14.276  0.0000E+00  0.1600E+02
    -14.049  0.0000E+00  0.1600E+02
    -13.821  0.0000E+00  0.1600E+02
    -13.594  0.0000E+00  0.1600E+02
    -13.366  0.0000E+00  0.1600E+02
    -13.139  0.0000E+00  0.1600E+02
    -12.911  0.0000E+00  0.1600E+02
    -12.684  0.5525E+00  0.1623E+02
    -12.456  0.1936E+00  0.1640E+02
    -12.229  0.1906E+00  0.1656E+02
    -12.002  0.1399E+01  0.1699E+02
    -11.774  0.6186E+00  0.1741E+02
    -11.547  0.3275E+01  0.1840E+02
    -11.319  0.2285E+01  0.1971E+02
    -11.092  0.2553E+01  0.2158E+02
    -10.864  0.1782E+01  0.2372E+02
    -10.637  0.0000E+00  0.2400E+02
    -10.409  0.0000E+00  0.2400E+02
    -10.182  0.0000E+00  0.2400E+02
     -9.954  0.0000E+00  0.2400E+02
     -9.727  0.0000E+00  0.2400E+02
     -9.499  0.0000E+00  0.2400E+02
     -9.272  0.0000E+00  0.2400E+02
     -9.044  0.0000E+00  0.2400E+02
     -8.817  0.0000E+00  0.2400E+02
     -8.589  0.0000E+00  0.2400E+02
     -8.362  0.0000E+00  0.2400E+02
     -8.134  0.0000E+00  0.2400E+02
     -7.907  0.0000E+00  0.2400E+02
     -7.679  0.0000E+00  0.2400E+02
     -7.452  0.0000E+00  0.2400E+02
     -7.224  0.0000E+00  0.2400E+02
     -6.997  0.0000E+00  0.2400E+02
     -6.769  0.0000E+00  0.2400E+02
     -6.542  0.0000E+00  0.2400E+02
     -6.314  0.0000E+00  0.2400E+02
     -6.087  0.0000E+00  0.2400E+02
     -5.860  0.0000E+00  0.2400E+02
     -5.632  0.0000E+00  0.2400E+02
     -5.405  0.0000E+00  0.2400E+02
     -5.177  0.0000E+00  0.2400E+02
     -4.950  0.0000E+00  0.2400E+02
     -4.722  0.0000E+00  0.2400E+02
     -4.495  0.0000E+00  0.2400E+02
     -4.267  0.0000E+00  0.2400E+02
     -4.040  0.0000E+00  0.2400E+02
     -3.812  0.0000E+00  0.2400E+02
     -3.585  0.0000E+00  0.2400E+02
     -3.357  0.0000E+00  0.2400E+02
     -3.130  0.0000E+00  0.2400E+02
     -2.902  0.0000E+00  0.2400E+02
     -2.675  0.0000E+00  0.2400E+02
     -2.447  0.0000E+00  0.2400E+02
     -2.220  0.0000E+00  0.2400E+02
     -1.992  0.0000E+00  0.2400E+02
     -1.765  0.0000E+00  0.2400E+02
     -1.537  0.0000E+00  0.2400E+02
     -1.310  0.0000E+00  0.2400E+02
     -1.082  0.0000E+00  0.2400E+02
     -0.855  0.0000E+00  0.2400E+02
     -0.627  0.0000E+00  0.2400E+02
     -0.400  0.0000E+00  0.2400E+02
     -0.172  0.3022E+00  0.2421E+02
      0.055  0.1366E+01  0.2467E+02
      0.283  0.8620E+00  0.2501E+02
      0.510  0.1701E+01  0.2569E+02
      0.737  0.1759E+01  0.2673E+02
      0.965  0.1373E+01  0.2811E+02
      1.192  0.1067E+01  0.2907E+02
      1.420  0.1824E+01  0.2987E+02
      1.647  0.1348E+01  0.3111E+02
      1.875  0.1046E+01  0.3308E+02
      2.102  0.1303E+01  0.3382E+02
      2.330  0.5647E+00  0.3463E+02
      2.557  0.7442E+00  0.3536E+02
      2.785  0.5882E+01  0.3714E+02
      3.012  0.1385E+01  0.3834E+02
      3.240  0.1176E+01  0.3900E+02
      3.467  0.2533E+01  0.3988E+02
      3.695  0.2273E+01  0.4129E+02
      3.922  0.1181E+01  0.4223E+02
      4.150  0.3090E+01  0.4376E+02
      4.377  0.1768E+01  0.4483E+02
      4.605  0.6979E+00  0.4562E+02
      4.832  0.1781E+01  0.4662E+02
      5.060  0.1318E+01  0.4747E+02
      5.287  0.2510E+00  0.4761E+02
      5.515  0.2801E+00  0.4778E+02
      5.742  0.0000E+00  0.4800E+02
      5.970  0.0000E+00  0.4800E+02
      6.197  0.0000E+00  0.4800E+02
      6.425  0.0000E+00  0.4800E+02
      6.652  0.0000E+00  0.4800E+02
      6.879  0.0000E+00  0.4800E+02
      7.107  0.0000E+00  0.4800E+02
      7.334  0.0000E+00  0.4800E+02
      7.562  0.0000E+00  0.4800E+02
      7.789  0.0000E+00  0.4800E+02
      8.017  0.2396E+01  0.4862E+02
      8.244  0.1041E+01  0.4924E+02
      8.472  0.1224E+01  0.4989E+02
      8.699  0.2714E+01  0.5179E+02
      8.927  0.1031E+01  0.5279E+02
      9.154  0.1923E+01  0.5385E+02
      9.382  0.4951E+01  0.5548E+02
      9.609  0.1417E+00  0.5588E+02
      9.837  0.0000E+00  0.5600E+02
     10.064  0.0000E+00  0.5600E+02
     10.292  0.0000E+00  0.5600E+02
     10.519  0.0000E+00  0.5600E+02
     10.747  0.0000E+00  0.5600E+02
     10.974  0.0000E+00  0.5600E+02
     11.202  0.0000E+00  0.5600E+02
     11.429  0.0000E+00  0.5600E+02
     11.657  0.0000E+00  0.5600E+02
     11.884  0.0000E+00  0.5600E+02
     12.112  0.0000E+00  0.5600E+02
     12.339  0.0000E+00  0.5600E+02
     12.567  0.0000E+00  0.5600E+02
     12.794  0.0000E+00  0.5600E+02
