       N       E                     dE             d eps       ncg     rms          rms(c)
DAV:   1    -0.277258973204E+02   -0.27726E+02   -0.12030E+03 10408   0.370E+02
DAV:   2    -0.471527386334E+02   -0.19427E+02   -0.19357E+02  8176   0.980E+01
DAV:   3    -0.480333122700E+02   -0.88057E+00   -0.87963E+00 11524   0.206E+01
DAV:   4    -0.480468465327E+02   -0.13534E-01   -0.13500E-01  9612   0.243E+00
DAV:   5    -0.480472030810E+02   -0.35655E-03   -0.35639E-03 11308   0.336E-01
DAV:   6    -0.480472074954E+02   -0.44144E-05   -0.44085E-05  7768   0.378E-02
   1 F= -.48047207E+02 E0= -.48047207E+02  d E =-.561259-174
