<?xml version="1.0" encoding="ISO-8859-1"?>
<modeling>
 <generator>
  <i name="program" type="string">vasp </i>
  <i name="version" type="string">6.2.0  </i>
  <i name="subversion" type="string">18Jan21 (build Oct 14 2021 17:49:53) complex                          parallel </i>
  <i name="platform" type="string">LinuxIFC </i>
  <i name="date" type="string">2022 04 02 </i>
  <i name="time" type="string">12:32:02 </i>
 </generator>
 <incar>
  <i type="string" name="SYSTEM">TiO2</i>
  <i type="int" name="ISTART">     1</i>
  <i type="int" name="ICHARG">    11</i>
  <i name="EDIFF">      0.00001000</i>
  <i name="ENCUT">    500.00000000</i>
  <i type="int" name="ISMEAR">     0</i>
  <i name="SIGMA">      0.01000000</i>
  <i type="int" name="LMAXMIX">     4</i>
  <i type="logical" name="LDAU"> T  </i>
  <i type="int" name="LDAUTYPE">     2</i>
  <v type="int" name="LDAUL">     2    -1</v>
  <v name="LDAUU">      3.90000000      0.00000000</v>
  <v name="LDAUJ">      0.00000000      0.00000000</v>
  <i type="int" name="LDAUPRINT">     2</i>
 </incar>
 <primitive_cell>
  <structure name="primitive_cell" >
   <crystal>
    <varray name="basis" >
     <v>       4.58400000       0.00000000       0.00000000 </v>
     <v>       0.00000000       4.58400000       0.00000000 </v>
     <v>       0.00000000       0.00000000       2.95300000 </v>
    </varray>
    <i name="volume">     62.05155437 </i>
    <varray name="rec_basis" >
     <v>       0.21815009       0.00000000       0.00000000 </v>
     <v>       0.00000000       0.21815009       0.00000000 </v>
     <v>       0.00000000       0.00000000       0.33863867 </v>
    </varray>
   </crystal>
   <varray name="positions" >
    <v>       0.00000000       0.00000000       0.00000000 </v>
    <v>       0.50000000       0.50000000       0.50000000 </v>
    <v>       0.19620933       0.80379067       0.50000000 </v>
    <v>       0.80379067       0.19620933       0.50000000 </v>
    <v>       0.30379067       0.30379067       0.00000000 </v>
    <v>       0.69620933       0.69620933       0.00000000 </v>
   </varray>
  </structure>
  <varray name="primitive_index" >
   <v type="int" >        1 </v>
   <v type="int" >        2 </v>
   <v type="int" >        3 </v>
   <v type="int" >        4 </v>
   <v type="int" >        5 </v>
   <v type="int" >        6 </v>
  </varray>
 </primitive_cell>
 <kpoints>
  <generation param="listgenerated">
   <i name="divisions" type="int">      20 </i>
   <v>       0.00000000       0.00000000       0.50000000 </v>
   <v>       0.50000000       0.50000000       0.50000000 </v>
   <v>       0.50000000       0.50000000       0.00000000 </v>
   <v>       0.00000000       0.00000000       0.00000000 </v>
   <v>       0.00000000       0.00000000       0.50000000 </v>
   <v>       0.00000000       0.50000000       0.50000000 </v>
   <v>       0.00000000       0.50000000       0.00000000 </v>
   <v>       0.00000000       0.00000000       0.00000000 </v>
  </generation>
  <varray name="kpointlist" >
   <v>       0.00000000       0.00000000       0.50000000 </v>
   <v>       0.02631579       0.02631579       0.50000000 </v>
   <v>       0.05263158       0.05263158       0.50000000 </v>
   <v>       0.07894737       0.07894737       0.50000000 </v>
   <v>       0.10526316       0.10526316       0.50000000 </v>
   <v>       0.13157895       0.13157895       0.50000000 </v>
   <v>       0.15789474       0.15789474       0.50000000 </v>
   <v>       0.18421053       0.18421053       0.50000000 </v>
   <v>       0.21052632       0.21052632       0.50000000 </v>
   <v>       0.23684211       0.23684211       0.50000000 </v>
   <v>       0.26315789       0.26315789       0.50000000 </v>
   <v>       0.28947368       0.28947368       0.50000000 </v>
   <v>       0.31578947       0.31578947       0.50000000 </v>
   <v>       0.34210526       0.34210526       0.50000000 </v>
   <v>       0.36842105       0.36842105       0.50000000 </v>
   <v>       0.39473684       0.39473684       0.50000000 </v>
   <v>       0.42105263       0.42105263       0.50000000 </v>
   <v>       0.44736842       0.44736842       0.50000000 </v>
   <v>       0.47368421       0.47368421       0.50000000 </v>
   <v>       0.50000000       0.50000000       0.50000000 </v>
   <v>       0.50000000       0.50000000       0.50000000 </v>
   <v>       0.50000000       0.50000000       0.47368421 </v>
   <v>       0.50000000       0.50000000       0.44736842 </v>
   <v>       0.50000000       0.50000000       0.42105263 </v>
   <v>       0.50000000       0.50000000       0.39473684 </v>
   <v>       0.50000000       0.50000000       0.36842105 </v>
   <v>       0.50000000       0.50000000       0.34210526 </v>
   <v>       0.50000000       0.50000000       0.31578947 </v>
   <v>       0.50000000       0.50000000       0.28947368 </v>
   <v>       0.50000000       0.50000000       0.26315789 </v>
   <v>       0.50000000       0.50000000       0.23684211 </v>
   <v>       0.50000000       0.50000000       0.21052632 </v>
   <v>       0.50000000       0.50000000       0.18421053 </v>
   <v>       0.50000000       0.50000000       0.15789474 </v>
   <v>       0.50000000       0.50000000       0.13157895 </v>
   <v>       0.50000000       0.50000000       0.10526316 </v>
   <v>       0.50000000       0.50000000       0.07894737 </v>
   <v>       0.50000000       0.50000000       0.05263158 </v>
   <v>       0.50000000       0.50000000       0.02631579 </v>
   <v>       0.50000000       0.50000000       0.00000000 </v>
   <v>       0.50000000       0.50000000       0.00000000 </v>
   <v>       0.47368421       0.47368421       0.00000000 </v>
   <v>       0.44736842       0.44736842       0.00000000 </v>
   <v>       0.42105263       0.42105263       0.00000000 </v>
   <v>       0.39473684       0.39473684       0.00000000 </v>
   <v>       0.36842105       0.36842105       0.00000000 </v>
   <v>       0.34210526       0.34210526       0.00000000 </v>
   <v>       0.31578947       0.31578947       0.00000000 </v>
   <v>       0.28947368       0.28947368       0.00000000 </v>
   <v>       0.26315789       0.26315789       0.00000000 </v>
   <v>       0.23684211       0.23684211       0.00000000 </v>
   <v>       0.21052632       0.21052632       0.00000000 </v>
   <v>       0.18421053       0.18421053       0.00000000 </v>
   <v>       0.15789474       0.15789474       0.00000000 </v>
   <v>       0.13157895       0.13157895       0.00000000 </v>
   <v>       0.10526316       0.10526316       0.00000000 </v>
   <v>       0.07894737       0.07894737       0.00000000 </v>
   <v>       0.05263158       0.05263158       0.00000000 </v>
   <v>       0.02631579       0.02631579       0.00000000 </v>
   <v>       0.00000000       0.00000000       0.00000000 </v>
   <v>       0.00000000       0.00000000       0.00000000 </v>
   <v>       0.00000000       0.00000000       0.02631579 </v>
   <v>       0.00000000       0.00000000       0.05263158 </v>
   <v>       0.00000000       0.00000000       0.07894737 </v>
   <v>       0.00000000       0.00000000       0.10526316 </v>
   <v>       0.00000000       0.00000000       0.13157895 </v>
   <v>       0.00000000       0.00000000       0.15789474 </v>
   <v>       0.00000000       0.00000000       0.18421053 </v>
   <v>       0.00000000       0.00000000       0.21052632 </v>
   <v>       0.00000000       0.00000000       0.23684211 </v>
   <v>       0.00000000       0.00000000       0.26315789 </v>
   <v>       0.00000000       0.00000000       0.28947368 </v>
   <v>       0.00000000       0.00000000       0.31578947 </v>
   <v>       0.00000000       0.00000000       0.34210526 </v>
   <v>       0.00000000       0.00000000       0.36842105 </v>
   <v>       0.00000000       0.00000000       0.39473684 </v>
   <v>       0.00000000       0.00000000       0.42105263 </v>
   <v>       0.00000000       0.00000000       0.44736842 </v>
   <v>       0.00000000       0.00000000       0.47368421 </v>
   <v>       0.00000000       0.00000000       0.50000000 </v>
   <v>       0.00000000       0.00000000       0.50000000 </v>
   <v>       0.00000000       0.02631579       0.50000000 </v>
   <v>       0.00000000       0.05263158       0.50000000 </v>
   <v>       0.00000000       0.07894737       0.50000000 </v>
   <v>       0.00000000       0.10526316       0.50000000 </v>
   <v>       0.00000000       0.13157895       0.50000000 </v>
   <v>       0.00000000       0.15789474       0.50000000 </v>
   <v>       0.00000000       0.18421053       0.50000000 </v>
   <v>       0.00000000       0.21052632       0.50000000 </v>
   <v>       0.00000000       0.23684211       0.50000000 </v>
   <v>       0.00000000       0.26315789       0.50000000 </v>
   <v>       0.00000000       0.28947368       0.50000000 </v>
   <v>       0.00000000       0.31578947       0.50000000 </v>
   <v>       0.00000000       0.34210526       0.50000000 </v>
   <v>       0.00000000       0.36842105       0.50000000 </v>
   <v>       0.00000000       0.39473684       0.50000000 </v>
   <v>       0.00000000       0.42105263       0.50000000 </v>
   <v>       0.00000000       0.44736842       0.50000000 </v>
   <v>       0.00000000       0.47368421       0.50000000 </v>
   <v>       0.00000000       0.50000000       0.50000000 </v>
   <v>       0.00000000       0.50000000       0.50000000 </v>
   <v>       0.00000000       0.50000000       0.47368421 </v>
   <v>       0.00000000       0.50000000       0.44736842 </v>
   <v>       0.00000000       0.50000000       0.42105263 </v>
   <v>       0.00000000       0.50000000       0.39473684 </v>
   <v>       0.00000000       0.50000000       0.36842105 </v>
   <v>       0.00000000       0.50000000       0.34210526 </v>
   <v>       0.00000000       0.50000000       0.31578947 </v>
   <v>       0.00000000       0.50000000       0.28947368 </v>
   <v>       0.00000000       0.50000000       0.26315789 </v>
   <v>       0.00000000       0.50000000       0.23684211 </v>
   <v>       0.00000000       0.50000000       0.21052632 </v>
   <v>       0.00000000       0.50000000       0.18421053 </v>
   <v>       0.00000000       0.50000000       0.15789474 </v>
   <v>       0.00000000       0.50000000       0.13157895 </v>
   <v>       0.00000000       0.50000000       0.10526316 </v>
   <v>       0.00000000       0.50000000       0.07894737 </v>
   <v>       0.00000000       0.50000000       0.05263158 </v>
   <v>       0.00000000       0.50000000       0.02631579 </v>
   <v>       0.00000000       0.50000000       0.00000000 </v>
   <v>       0.00000000       0.50000000       0.00000000 </v>
   <v>       0.00000000       0.47368421       0.00000000 </v>
   <v>       0.00000000       0.44736842       0.00000000 </v>
   <v>       0.00000000       0.42105263       0.00000000 </v>
   <v>       0.00000000       0.39473684       0.00000000 </v>
   <v>       0.00000000       0.36842105       0.00000000 </v>
   <v>       0.00000000       0.34210526       0.00000000 </v>
   <v>       0.00000000       0.31578947       0.00000000 </v>
   <v>       0.00000000       0.28947368       0.00000000 </v>
   <v>       0.00000000       0.26315789       0.00000000 </v>
   <v>       0.00000000       0.23684211       0.00000000 </v>
   <v>       0.00000000       0.21052632       0.00000000 </v>
   <v>       0.00000000       0.18421053       0.00000000 </v>
   <v>       0.00000000       0.15789474       0.00000000 </v>
   <v>       0.00000000       0.13157895       0.00000000 </v>
   <v>       0.00000000       0.10526316       0.00000000 </v>
   <v>       0.00000000       0.07894737       0.00000000 </v>
   <v>       0.00000000       0.05263158       0.00000000 </v>
   <v>       0.00000000       0.02631579       0.00000000 </v>
   <v>       0.00000000       0.00000000       0.00000000 </v>
  </varray>
  <varray name="weights" >
   <v>       0.00714286 </v>
   <v>       0.00714286 </v>
   <v>       0.00714286 </v>
   <v>       0.00714286 </v>
   <v>       0.00714286 </v>
   <v>       0.00714286 </v>
   <v>       0.00714286 </v>
   <v>       0.00714286 </v>
   <v>       0.00714286 </v>
   <v>       0.00714286 </v>
   <v>       0.00714286 </v>
   <v>       0.00714286 </v>
   <v>       0.00714286 </v>
   <v>       0.00714286 </v>
   <v>       0.00714286 </v>
   <v>       0.00714286 </v>
   <v>       0.00714286 </v>
   <v>       0.00714286 </v>
   <v>       0.00714286 </v>
   <v>       0.00714286 </v>
   <v>       0.00714286 </v>
   <v>       0.00714286 </v>
   <v>       0.00714286 </v>
   <v>       0.00714286 </v>
   <v>       0.00714286 </v>
   <v>       0.00714286 </v>
   <v>       0.00714286 </v>
   <v>       0.00714286 </v>
   <v>       0.00714286 </v>
   <v>       0.00714286 </v>
   <v>       0.00714286 </v>
   <v>       0.00714286 </v>
   <v>       0.00714286 </v>
   <v>       0.00714286 </v>
   <v>       0.00714286 </v>
   <v>       0.00714286 </v>
   <v>       0.00714286 </v>
   <v>       0.00714286 </v>
   <v>       0.00714286 </v>
   <v>       0.00714286 </v>
   <v>       0.00714286 </v>
   <v>       0.00714286 </v>
   <v>       0.00714286 </v>
   <v>       0.00714286 </v>
   <v>       0.00714286 </v>
   <v>       0.00714286 </v>
   <v>       0.00714286 </v>
   <v>       0.00714286 </v>
   <v>       0.00714286 </v>
   <v>       0.00714286 </v>
   <v>       0.00714286 </v>
   <v>       0.00714286 </v>
   <v>       0.00714286 </v>
   <v>       0.00714286 </v>
   <v>       0.00714286 </v>
   <v>       0.00714286 </v>
   <v>       0.00714286 </v>
   <v>       0.00714286 </v>
   <v>       0.00714286 </v>
   <v>       0.00714286 </v>
   <v>       0.00714286 </v>
   <v>       0.00714286 </v>
   <v>       0.00714286 </v>
   <v>       0.00714286 </v>
   <v>       0.00714286 </v>
   <v>       0.00714286 </v>
   <v>       0.00714286 </v>
   <v>       0.00714286 </v>
   <v>       0.00714286 </v>
   <v>       0.00714286 </v>
   <v>       0.00714286 </v>
   <v>       0.00714286 </v>
   <v>       0.00714286 </v>
   <v>       0.00714286 </v>
   <v>       0.00714286 </v>
   <v>       0.00714286 </v>
   <v>       0.00714286 </v>
   <v>       0.00714286 </v>
   <v>       0.00714286 </v>
   <v>       0.00714286 </v>
   <v>       0.00714286 </v>
   <v>       0.00714286 </v>
   <v>       0.00714286 </v>
   <v>       0.00714286 </v>
   <v>       0.00714286 </v>
   <v>       0.00714286 </v>
   <v>       0.00714286 </v>
   <v>       0.00714286 </v>
   <v>       0.00714286 </v>
   <v>       0.00714286 </v>
   <v>       0.00714286 </v>
   <v>       0.00714286 </v>
   <v>       0.00714286 </v>
   <v>       0.00714286 </v>
   <v>       0.00714286 </v>
   <v>       0.00714286 </v>
   <v>       0.00714286 </v>
   <v>       0.00714286 </v>
   <v>       0.00714286 </v>
   <v>       0.00714286 </v>
   <v>       0.00714286 </v>
   <v>       0.00714286 </v>
   <v>       0.00714286 </v>
   <v>       0.00714286 </v>
   <v>       0.00714286 </v>
   <v>       0.00714286 </v>
   <v>       0.00714286 </v>
   <v>       0.00714286 </v>
   <v>       0.00714286 </v>
   <v>       0.00714286 </v>
   <v>       0.00714286 </v>
   <v>       0.00714286 </v>
   <v>       0.00714286 </v>
   <v>       0.00714286 </v>
   <v>       0.00714286 </v>
   <v>       0.00714286 </v>
   <v>       0.00714286 </v>
   <v>       0.00714286 </v>
   <v>       0.00714286 </v>
   <v>       0.00714286 </v>
   <v>       0.00714286 </v>
   <v>       0.00714286 </v>
   <v>       0.00714286 </v>
   <v>       0.00714286 </v>
   <v>       0.00714286 </v>
   <v>       0.00714286 </v>
   <v>       0.00714286 </v>
   <v>       0.00714286 </v>
   <v>       0.00714286 </v>
   <v>       0.00714286 </v>
   <v>       0.00714286 </v>
   <v>       0.00714286 </v>
   <v>       0.00714286 </v>
   <v>       0.00714286 </v>
   <v>       0.00714286 </v>
   <v>       0.00714286 </v>
   <v>       0.00714286 </v>
   <v>       0.00714286 </v>
   <v>       0.00714286 </v>
   <v>       0.00714286 </v>
  </varray>
 </kpoints>
 <parameters>
  <separator name="general" >
   <i type="string" name="SYSTEM">TiO2</i>
   <i type="logical" name="LCOMPAT"> F  </i>
  </separator>
  <separator name="electronic" >
   <i type="string" name="PREC">normal</i>
   <i name="ENMAX">    500.00000000</i>
   <i name="ENAUG">    482.84800000</i>
   <i name="EDIFF">      0.00001000</i>
   <i type="int" name="IALGO">    38</i>
   <i type="int" name="IWAVPR">    10</i>
   <i type="int" name="NBANDS">    28</i>
   <i type="int" name="NBANDSLOW">    -1</i>
   <i type="int" name="NBANDSHIGH">    -1</i>
   <i name="NELECT">     48.00000000</i>
   <i type="int" name="TURBO">     0</i>
   <i type="int" name="IRESTART">     0</i>
   <i type="int" name="NREBOOT">     0</i>
   <i type="int" name="NMIN">     0</i>
   <i name="EREF">      0.00000000</i>
   <separator name="electronic smearing" >
    <i type="int" name="ISMEAR">     0</i>
    <i name="SIGMA">      0.01000000</i>
    <i name="KSPACING">      0.50000000</i>
    <i type="logical" name="KGAMMA"> T  </i>
    <i type="logical" name="KBLOWUP"> T  </i>
   </separator>
   <separator name="electronic projectors" >
    <i type="logical" name="LREAL"> F  </i>
    <v name="ROPT">      0.00000000      0.00000000</v>
    <i type="int" name="LMAXPAW">  -100</i>
    <i type="int" name="LMAXMIX">     4</i>
    <i type="logical" name="NLSPLINE"> F  </i>
   </separator>
   <separator name="electronic startup" >
    <i type="int" name="ISTART">     1</i>
    <i type="int" name="ICHARG">    11</i>
    <i type="int" name="INIWAV">     1</i>
   </separator>
   <separator name="electronic spin" >
    <i type="int" name="ISPIN">     1</i>
    <i type="logical" name="LNONCOLLINEAR"> F  </i>
    <v name="MAGMOM">      1.00000000      1.00000000      1.00000000      1.00000000      1.00000000      1.00000000</v>
    <i name="NUPDOWN">     -1.00000000</i>
    <i type="logical" name="LSORBIT"> F  </i>
    <v name="SAXIS">      0.00000000      0.00000000      1.00000000</v>
    <i type="logical" name="LSPIRAL"> F  </i>
    <v name="QSPIRAL">      0.00000000      0.00000000      0.00000000</v>
    <i type="logical" name="LZEROZ"> F  </i>
   </separator>
   <separator name="electronic exchange-correlation" >
    <i type="logical" name="LASPH"> F  </i>
    <i type="logical" name="LMETAGGA"> F  </i>
   </separator>
   <separator name="electronic convergence" >
    <i type="int" name="NELM">    60</i>
    <i type="int" name="NELMDL">     0</i>
    <i type="int" name="NELMIN">     2</i>
    <i name="ENINI">    500.00000000</i>
    <separator name="electronic convergence detail" >
     <i type="logical" name="LDIAG"> T  </i>
     <i type="logical" name="LSUBROT"> F  </i>
     <i name="WEIMIN">      0.00000000</i>
     <i name="EBREAK">      0.00000009</i>
     <i name="DEPER">      0.30000000</i>
     <i type="int" name="NRMM">     4</i>
     <i name="TIME">      0.40000000</i>
    </separator>
   </separator>
   <separator name="electronic mixer" >
    <i name="AMIX">      0.40000000</i>
    <i name="BMIX">      1.00000000</i>
    <i name="AMIN">      0.10000000</i>
    <i name="AMIX_MAG">      1.60000000</i>
    <i name="BMIX_MAG">      1.00000000</i>
    <separator name="electronic mixer details" >
     <i type="int" name="IMIX">     4</i>
     <i type="logical" name="MIXFIRST"> F  </i>
     <i type="int" name="MAXMIX">   -45</i>
     <i name="WC">    100.00000000</i>
     <i type="int" name="INIMIX">     1</i>
     <i type="int" name="MIXPRE">     1</i>
     <i type="int" name="MREMOVE">     5</i>
    </separator>
   </separator>
   <separator name="electronic dipolcorrection" >
    <i type="logical" name="LDIPOL"> F  </i>
    <i type="logical" name="LMONO"> F  </i>
    <i type="int" name="IDIPOL">     0</i>
    <i name="EPSILON">      1.00000000</i>
    <v name="DIPOL">   -100.00000000   -100.00000000   -100.00000000</v>
    <i name="EFIELD">      0.00000000</i>
   </separator>
  </separator>
  <separator name="grids" >
   <i type="int" name="NGX">    28</i>
   <i type="int" name="NGY">    28</i>
   <i type="int" name="NGZ">    16</i>
   <i type="int" name="NGXF">    56</i>
   <i type="int" name="NGYF">    56</i>
   <i type="int" name="NGZF">    32</i>
   <i type="logical" name="ADDGRID"> F  </i>
  </separator>
  <separator name="ionic" >
   <i type="int" name="NSW">     0</i>
   <i type="int" name="IBRION">    -1</i>
   <i type="int" name="MDALGO">     0</i>
   <i type="int" name="ISIF">     2</i>
   <i name="PSTRESS">      0.00000000</i>
   <i name="EDIFFG">      0.00010000</i>
   <i type="int" name="NFREE">     0</i>
   <i name="POTIM">      0.50000000</i>
   <i name="SMASS">     -3.00000000</i>
   <i name="SCALEE">      1.00000000</i>
  </separator>
  <separator name="ionic md" >
   <i name="TEBEG">      0.00010000</i>
   <i name="TEEND">      0.00010000</i>
   <i type="int" name="NBLOCK">     1</i>
   <i type="int" name="KBLOCK">     1</i>
   <i type="int" name="NPACO">   256</i>
   <i name="APACO">     16.00000000</i>
  </separator>
  <separator name="symmetry" >
   <i type="int" name="ISYM">     2</i>
   <i name="SYMPREC">      0.00001000</i>
  </separator>
  <separator name="dos" >
   <i type="int" name="LORBIT">     0</i>
   <v name="RWIGS">     -1.00000000     -1.00000000</v>
   <i type="int" name="NEDOS">   301</i>
   <i name="EMIN">     10.00000000</i>
   <i name="EMAX">    -10.00000000</i>
   <i name="EFERMI">      0.00000000</i>
  </separator>
  <separator name="writing" >
   <i type="int" name="NWRITE">     2</i>
   <i type="logical" name="LWAVE"> T  </i>
   <i type="logical" name="LDOWNSAMPLE"> F  </i>
   <i type="logical" name="LCHARG"> T  </i>
   <i type="logical" name="LPARD"> F  </i>
   <i type="logical" name="LVTOT"> F  </i>
   <i type="logical" name="LVHAR"> F  </i>
   <i type="logical" name="LELF"> F  </i>
   <i type="logical" name="LOPTICS"> F  </i>
   <v name="STM">      0.00000000      0.00000000      0.00000000      0.00000000      0.00000000      0.00000000      0.00000000</v>
  </separator>
  <separator name="performance" >
   <i type="int" name="NPAR">     1</i>
   <i type="int" name="NSIM">     4</i>
   <i type="int" name="NBLK">    -1</i>
   <i type="logical" name="LPLANE"> T  </i>
   <i type="logical" name="LSCALAPACK"> T  </i>
   <i type="logical" name="LSCAAWARE"> F  </i>
   <i type="logical" name="LSCALU"> F  </i>
   <i type="logical" name="LASYNC"> F  </i>
   <i type="logical" name="LORBITALREAL"> F  </i>
  </separator>
  <separator name="miscellaneous" >
   <i type="int" name="IDIOT">     3</i>
   <i type="int" name="PHON_NSTRUCT">    -1</i>
   <i type="logical" name="LMUSIC"> F  </i>
   <v name="POMASS">     47.88000000     16.00000000</v>
   <v name="DARWINR">      0.00000000      0.00000000</v>
   <v name="DARWINV">      1.00000000      1.00000000</v>
   <i type="logical" name="LCORR"> T  </i>
  </separator>
  <i type="logical" name="GGA_COMPAT"> T  </i>
  <i type="logical" name="LBERRY"> F  </i>
  <i type="int" name="ICORELEVEL">     0</i>
  <i type="logical" name="LDAU"> T  </i>
  <v type="int" name="LDAUTYPE">     2</v>
  <v type="int" name="LDAUL">     2</v>
  <v name="LDAUU">      3.90000000</v>
  <v name="LDAUJ">      0.00000000</v>
  <i type="int" name="LDAUPRINT">     2</i>
  <i type="int" name="I_CONSTRAINED_M">     0</i>
  <separator name="electronic exchange-correlation" >
   <i type="string" name="GGA">--</i>
   <i type="int" name="VOSKOWN">     0</i>
   <i type="logical" name="LHFCALC"> F  </i>
   <i type="string" name="PRECFOCK"></i>
   <i type="logical" name="LSYMGRAD"> F  </i>
   <i type="logical" name="LHFONE"> F  </i>
   <i type="logical" name="LRHFCALC"> F  </i>
   <i type="logical" name="LTHOMAS"> F  </i>
   <i type="logical" name="LMODELHF"> F  </i>
   <i type="logical" name="LFOCKACE"> F  </i>
   <i name="ENCUT4O">     -1.00000000</i>
   <i type="int" name="EXXOEP">     0</i>
   <i type="int" name="FOURORBIT">     0</i>
   <i name="AEXX">      0.00000000</i>
   <i name="HFALPHA">      0.00000000</i>
   <i name="MCALPHA">      0.00000000</i>
   <i name="ALDAX">      1.00000000</i>
   <i name="AGGAX">      1.00000000</i>
   <i name="ALDAC">      1.00000000</i>
   <i name="AGGAC">      1.00000000</i>
   <i type="int" name="NKREDX">     1</i>
   <i type="int" name="NKREDY">     1</i>
   <i type="int" name="NKREDZ">     1</i>
   <i type="logical" name="SHIFTRED"> F  </i>
   <i type="logical" name="ODDONLY"> F  </i>
   <i type="logical" name="EVENONLY"> F  </i>
   <i type="int" name="LMAXFOCK">     0</i>
   <i type="int" name="NMAXFOCKAE">     0</i>
   <i type="logical" name="LFOCKAEDFT"> F  </i>
   <i name="HFSCREEN">      0.00000000</i>
   <i name="HFSCREENC">      0.00000000</i>
   <i type="int" name="NBANDSGWLOW">     0</i>
  </separator>
  <separator name="vdW DFT" >
   <i type="logical" name="LUSE_VDW"> F  </i>
   <i name="Zab_VDW">     -0.84910000</i>
   <i name="PARAM1">      0.12340000</i>
   <i name="PARAM2">      1.00000000</i>
   <i name="PARAM3">      0.00000000</i>
  </separator>
  <separator name="model GW" >
   <i type="int" name="MODEL_GW">     0</i>
   <i name="MODEL_EPS0">      6.20515544</i>
   <i name="MODEL_ALPHA">      1.00000000</i>
  </separator>
  <separator name="linear response parameters" >
   <i type="logical" name="LEPSILON"> F  </i>
   <i type="logical" name="LRPA"> F  </i>
   <i type="logical" name="LNABLA"> F  </i>
   <i type="logical" name="LVEL"> F  </i>
   <i type="int" name="KINTER">     0</i>
   <i name="CSHIFT">      0.10000000</i>
   <i name="OMEGAMAX">     -1.00000000</i>
   <i name="DEG_THRESHOLD">      0.00200000</i>
   <i name="RTIME">     -0.10000000</i>
   <i name="WPLASMAI">      0.00000000</i>
   <v name="DFIELD">      0.00000000      0.00000000      0.00000000</v>
   <v name="WPLASMA">      0.00000000      0.00000000      0.00000000      0.00000000      0.00000000      0.00000000      0.00000000      0.00000000      0.00000000</v>
  </separator>
  <separator name="orbital magnetization" >
   <i type="logical" name="NUCIND"> F  </i>
   <v name="MAGPOS">      0.00000000      0.00000000      0.00000000</v>
   <i type="logical" name="LNICSALL"> T  </i>
   <i type="logical" name="ORBITALMAG"> F  </i>
   <i type="logical" name="LMAGBLOCH"> F  </i>
   <i type="logical" name="LCHIMAG"> F  </i>
   <i type="logical" name="LGAUGE"> T  </i>
   <i type="int" name="MAGATOM">     0</i>
   <v name="MAGDIPOL">      0.00000000      0.00000000      0.00000000</v>
   <v name="AVECCONST">      0.00000000      0.00000000      0.00000000</v>
  </separator>
  <separator name="response functions" >
   <i type="logical" name="LFINITE_TEMPERATURE"> F  </i>
   <i type="logical" name="LADDER"> F  </i>
   <i type="logical" name="LRPAFORCE"> F  </i>
   <i type="logical" name="LFXC"> F  </i>
   <i type="logical" name="LHARTREE"> T  </i>
   <i type="int" name="IBSE">     0</i>
   <v type="int" name="KPOINT">    -1     0     0     0</v>
   <i type="logical" name="LTCTC"> F  </i>
   <i type="logical" name="LTCTE"> F  </i>
   <i type="logical" name="LTETE"> F  </i>
   <i type="logical" name="LTRIPLET"> F  </i>
   <i type="logical" name="LFXCEPS"> F  </i>
   <i type="logical" name="LFXHEG"> F  </i>
   <i type="int" name="NATURALO">     2</i>
   <i type="logical" name="LHOLEGF"> F  </i>
   <i type="logical" name="L2ORDER"> F  </i>
   <i type="logical" name="LDMP1"> F  </i>
   <i type="logical" name="LMP2LT"> F  </i>
   <i type="logical" name="LSMP2LT"> F  </i>
   <i type="logical" name="LGWLF"> F  </i>
   <i name="ENCUTGW">     -2.00000000</i>
   <i name="ENCUTGWSOFT">     -2.00000000</i>
   <i name="ENCUTLF">     -1.00000000</i>
   <i type="logical" name="LESF_SPLINES"> F  </i>
   <i type="int" name="LMAXMP2">    -1</i>
   <i name="SCISSOR">      0.00000000</i>
   <i type="int" name="NOMEGA">     0</i>
   <i type="int" name="NOMEGAR">     0</i>
   <i type="int" name="NBANDSGW">    -1</i>
   <i type="int" name="NBANDSO">    -1</i>
   <i type="int" name="NBANDSV">    -1</i>
   <i type="int" name="NELM">     1</i>
   <i type="int" name="NELMHF">     1</i>
   <i type="int" name="DIM">     3</i>
   <i type="int" name="IESPILON">     4</i>
   <i type="int" name="ANTIRES">     0</i>
   <i name="OMEGAMAX">    -30.00000000</i>
   <i name="OMEGAMIN">    -30.00000000</i>
   <i name="OMEGATL">   -200.00000000</i>
   <i type="int" name="OMEGAGRID">     0</i>
   <i name="CSHIFT">     -0.10000000</i>
   <i type="logical" name="LSELFENERGY"> F  </i>
   <i type="logical" name="LSPECTRAL"> F  </i>
   <i type="logical" name="LSPECTRALGW"> F  </i>
   <i type="logical" name="LSINGLES"> F  </i>
   <i type="logical" name="LFERMIGW"> F  </i>
   <i type="logical" name="ODDONLYGW"> F  </i>
   <i type="logical" name="EVENONLYGW"> F  </i>
   <i type="int" name="NKREDLFX">     1</i>
   <i type="int" name="NKREDLFY">     1</i>
   <i type="int" name="NKREDLFZ">     1</i>
   <i type="int" name="MAXMEM">  2800</i>
   <i type="int" name="TELESCOPE">     0</i>
   <i type="int" name="NTAUPAR">    -1</i>
   <i type="int" name="NOMEGAPAR">    -1</i>
   <i name="DAMP_NEWTON">      0.80000001</i>
   <i name="LAMBDA">      1.00000000</i>
  </separator>
  <separator name="External order field" >
   <i name="OFIELD_KAPPA">      0.00000000</i>
   <v name="OFIELD_K">      0.00000000      0.00000000      0.00000000</v>
   <i name="OFIELD_Q6_NEAR">      0.00000000</i>
   <i name="OFIELD_Q6_FAR">      0.00000000</i>
   <i name="OFIELD_A">      0.00000000</i>
  </separator>
 </parameters>
 <atominfo>
  <atoms>       6 </atoms>
  <types>       2 </types>
  <array name="atoms" >
   <dimension dim="1">ion</dimension>
   <field type="string">element</field>
   <field type="int">atomtype</field>
   <set>
    <rc><c>Ti</c><c>   1</c></rc>
    <rc><c>Ti</c><c>   1</c></rc>
    <rc><c>O </c><c>   2</c></rc>
    <rc><c>O </c><c>   2</c></rc>
    <rc><c>O </c><c>   2</c></rc>
    <rc><c>O </c><c>   2</c></rc>
   </set>
  </array>
  <array name="atomtypes" >
   <dimension dim="1">type</dimension>
   <field type="int">atomspertype</field>
   <field type="string">element</field>
   <field>mass</field>
   <field>valence</field>
   <field type="string">pseudopotential</field>
   <set>
    <rc><c>   2</c><c>Ti</c><c>     47.88000000</c><c>     12.00000000</c><c>  PAW_PBE Ti_sv 26Sep2005               </c></rc>
    <rc><c>   4</c><c>O </c><c>     16.00000000</c><c>      6.00000000</c><c> PAW_PBE O_s 07Sep2000                  </c></rc>
   </set>
  </array>
 </atominfo>
 <structure name="initialpos" >
  <crystal>
   <varray name="basis" >
    <v>       4.58400000       0.00000000       0.00000000 </v>
    <v>       0.00000000       4.58400000       0.00000000 </v>
    <v>       0.00000000       0.00000000       2.95300000 </v>
   </varray>
   <i name="volume">     62.05155437 </i>
   <varray name="rec_basis" >
    <v>       0.21815009       0.00000000       0.00000000 </v>
    <v>       0.00000000       0.21815009       0.00000000 </v>
    <v>       0.00000000       0.00000000       0.33863867 </v>
   </varray>
  </crystal>
  <varray name="positions" >
   <v>       0.00000000       0.00000000       0.00000000 </v>
   <v>       0.50000000       0.50000000       0.50000000 </v>
   <v>       0.19620933       0.80379067       0.50000000 </v>
   <v>       0.80379067       0.19620933       0.50000000 </v>
   <v>       0.30379067       0.30379067       0.00000000 </v>
   <v>       0.69620933       0.69620933       0.00000000 </v>
  </varray>
 </structure>
 <calculation>
  <scstep>
   <time name="dav">    5.35    5.36</time>
   <time name="total">    5.39    5.40</time>
   <energy>
    <i name="alphaZ">    184.33841299 </i>
    <i name="ewald">  -3605.32907450 </i>
    <i name="hartreedc">  -1218.09309747 </i>
    <i name="XCdc">    236.15267559 </i>
    <i name="pawpsdc">   7130.08114141 </i>
    <i name="pawaedc">  -7100.47968611 </i>
    <i name="eentropy">     -0.00000000 </i>
    <i name="bandstr">   -560.05454335 </i>
    <i name="atom">   4905.65827411 </i>
    <i name="e_fr_energy">    -27.72589732 </i>
    <i name="e_wo_entrp">    -27.72589732 </i>
    <i name="e_0_energy">    -27.72589732 </i>
   </energy>
  </scstep>
  <scstep>
   <time name="dav">    4.49    4.49</time>
   <time name="total">    4.49    4.49</time>
   <energy>
    <i name="e_fr_energy">    -47.15273863 </i>
    <i name="e_wo_entrp">    -47.15273863 </i>
    <i name="e_0_energy">    -47.15273863 </i>
   </energy>
  </scstep>
  <scstep>
   <time name="dav">    5.77    5.77</time>
   <time name="total">    5.77    5.77</time>
   <energy>
    <i name="e_fr_energy">    -48.03331227 </i>
    <i name="e_wo_entrp">    -48.03331227 </i>
    <i name="e_0_energy">    -48.03331227 </i>
   </energy>
  </scstep>
  <scstep>
   <time name="dav">    5.05    5.05</time>
   <time name="total">    5.05    5.06</time>
   <energy>
    <i name="e_fr_energy">    -48.04684653 </i>
    <i name="e_wo_entrp">    -48.04684653 </i>
    <i name="e_0_energy">    -48.04684653 </i>
   </energy>
  </scstep>
  <scstep>
   <time name="dav">    5.62    5.63</time>
   <time name="total">    5.62    5.63</time>
   <energy>
    <i name="e_fr_energy">    -48.04720308 </i>
    <i name="e_wo_entrp">    -48.04720308 </i>
    <i name="e_0_energy">    -48.04720308 </i>
   </energy>
  </scstep>
  <scstep>
   <time name="dav">    4.41    4.41</time>
   <time name="total">    4.41    4.41</time>
   <energy>
    <i name="alphaZ">    184.33841299 </i>
    <i name="ewald">  -3605.32907450 </i>
    <i name="hartreedc">  -1218.09309747 </i>
    <i name="XCdc">    236.15267559 </i>
    <i name="pawpsdc">   7130.08114141 </i>
    <i name="pawaedc">  -7100.47968611 </i>
    <i name="eentropy">     -0.00000000 </i>
    <i name="bandstr">   -580.37585353 </i>
    <i name="atom">   4905.65827411 </i>
    <i name="e_fr_energy">    -48.04720750 </i>
    <i name="e_wo_entrp">    -48.04720750 </i>
    <i name="e_0_energy">    -48.04720750 </i>
   </energy>
  </scstep>
  <structure>
   <crystal>
    <varray name="basis" >
     <v>       4.58400000       0.00000000       0.00000000 </v>
     <v>       0.00000000       4.58400000       0.00000000 </v>
     <v>       0.00000000       0.00000000       2.95300000 </v>
    </varray>
    <i name="volume">     62.05155437 </i>
    <varray name="rec_basis" >
     <v>       0.21815009       0.00000000       0.00000000 </v>
     <v>       0.00000000       0.21815009       0.00000000 </v>
     <v>       0.00000000       0.00000000       0.33863867 </v>
    </varray>
   </crystal>
   <varray name="positions" >
    <v>       0.00000000       0.00000000       0.00000000 </v>
    <v>       0.50000000       0.50000000       0.50000000 </v>
    <v>       0.19620933       0.80379067       0.50000000 </v>
    <v>       0.80379067       0.19620933       0.50000000 </v>
    <v>       0.30379067       0.30379067       0.00000000 </v>
    <v>       0.69620933       0.69620933       0.00000000 </v>
   </varray>
  </structure>
  <varray name="forces" >
   <v>       0.00000000       0.00000000      -0.00000000 </v>
   <v>      -0.00000000      -0.00000000      -0.00000000 </v>
   <v>       0.14759042      -0.14759042      -0.00000000 </v>
   <v>      -0.14759042       0.14759042       0.00000000 </v>
   <v>      -0.14759042      -0.14759042      -0.00000000 </v>
   <v>       0.14759042       0.14759042       0.00000000 </v>
  </varray>
  <varray name="stress" >
   <v>     171.56037577      -0.00000000       0.00000000 </v>
   <v>       0.00000000     171.56037577       0.00000000 </v>
   <v>       0.00000000       0.00000000     223.14396545 </v>
  </varray>
  <energy>
   <i name="e_fr_energy">    -48.04720750 </i>
   <i name="e_wo_entrp">    -48.04720750 </i>
   <i name="e_0_energy">    -48.04720750 </i>
  </energy>
  <time name="totalsc">   36.44   37.61</time>
  <eigenvalues>
   <array>
    <dimension dim="1">band</dimension>
    <dimension dim="2">kpoint</dimension>
    <dimension dim="3">spin</dimension>
    <field>eigene</field>
    <field>occ</field>
    <set>
     <set comment="spin 1">
      <set comment="kpoint 1">
       <r>  -52.3009    1.0000 </r>
       <r>  -52.3009    1.0000 </r>
       <r>  -28.8190    1.0000 </r>
       <r>  -28.8190    1.0000 </r>
       <r>  -28.4716    1.0000 </r>
       <r>  -28.4716    1.0000 </r>
       <r>  -28.4562    1.0000 </r>
       <r>  -28.4562    1.0000 </r>
       <r>  -11.3024    1.0000 </r>
       <r>  -11.3024    1.0000 </r>
       <r>  -11.2940    1.0000 </r>
       <r>  -11.2940    1.0000 </r>
       <r>    0.9995    1.0000 </r>
       <r>    0.9995    1.0000 </r>
       <r>    1.7687    1.0000 </r>
       <r>    1.7687    1.0000 </r>
       <r>    1.8409    1.0000 </r>
       <r>    1.8409    1.0000 </r>
       <r>    2.7083    1.0000 </r>
       <r>    2.7083    1.0000 </r>
       <r>    3.2003    1.0000 </r>
       <r>    3.2003    1.0000 </r>
       <r>    4.1000    1.0000 </r>
       <r>    4.1000    1.0000 </r>
       <r>    9.1791    0.0000 </r>
       <r>    9.3292    0.0000 </r>
       <r>    9.3292    0.0000 </r>
       <r>    9.6668    0.0000 </r>
      </set>
      <set comment="kpoint 2">
       <r>  -52.3009    1.0000 </r>
       <r>  -52.3009    1.0000 </r>
       <r>  -28.8192    1.0000 </r>
       <r>  -28.8190    1.0000 </r>
       <r>  -28.4716    1.0000 </r>
       <r>  -28.4713    1.0000 </r>
       <r>  -28.4562    1.0000 </r>
       <r>  -28.4561    1.0000 </r>
       <r>  -11.3514    1.0000 </r>
       <r>  -11.3031    1.0000 </r>
       <r>  -11.2931    1.0000 </r>
       <r>  -11.2445    1.0000 </r>
       <r>    0.9912    1.0000 </r>
       <r>    1.0041    1.0000 </r>
       <r>    1.6478    1.0000 </r>
       <r>    1.7615    1.0000 </r>
       <r>    1.8234    1.0000 </r>
       <r>    1.9784    1.0000 </r>
       <r>    2.7081    1.0000 </r>
       <r>    2.7103    1.0000 </r>
       <r>    3.2075    1.0000 </r>
       <r>    3.2243    1.0000 </r>
       <r>    4.0892    1.0000 </r>
       <r>    4.1007    1.0000 </r>
       <r>    9.0374    0.0000 </r>
       <r>    9.0699    0.0000 </r>
       <r>    9.3294    0.0000 </r>
       <r>    9.3302    0.0000 </r>
      </set>
      <set comment="kpoint 3">
       <r>  -52.3009    1.0000 </r>
       <r>  -52.3009    1.0000 </r>
       <r>  -28.8199    1.0000 </r>
       <r>  -28.8191    1.0000 </r>
       <r>  -28.4717    1.0000 </r>
       <r>  -28.4706    1.0000 </r>
       <r>  -28.4562    1.0000 </r>
       <r>  -28.4561    1.0000 </r>
       <r>  -11.4025    1.0000 </r>
       <r>  -11.3051    1.0000 </r>
       <r>  -11.2906    1.0000 </r>
       <r>  -11.1919    1.0000 </r>
       <r>    0.9648    1.0000 </r>
       <r>    1.0177    1.0000 </r>
       <r>    1.5203    1.0000 </r>
       <r>    1.7403    1.0000 </r>
       <r>    1.7745    1.0000 </r>
       <r>    2.1566    1.0000 </r>
       <r>    2.7076    1.0000 </r>
       <r>    2.7162    1.0000 </r>
       <r>    3.2289    1.0000 </r>
       <r>    3.2924    1.0000 </r>
       <r>    4.0577    1.0000 </r>
       <r>    4.1028    1.0000 </r>
       <r>    8.9492    0.0000 </r>
       <r>    9.1048    0.0000 </r>
       <r>    9.3301    0.0000 </r>
       <r>    9.3335    0.0000 </r>
      </set>
      <set comment="kpoint 4">
       <r>  -52.3009    1.0000 </r>
       <r>  -52.3009    1.0000 </r>
       <r>  -28.8211    1.0000 </r>
       <r>  -28.8192    1.0000 </r>
       <r>  -28.4717    1.0000 </r>
       <r>  -28.4694    1.0000 </r>
       <r>  -28.4562    1.0000 </r>
       <r>  -28.4559    1.0000 </r>
       <r>  -11.4504    1.0000 </r>
       <r>  -11.3084    1.0000 </r>
       <r>  -11.2866    1.0000 </r>
       <r>  -11.1416    1.0000 </r>
       <r>    0.9177    1.0000 </r>
       <r>    1.0398    1.0000 </r>
       <r>    1.4212    1.0000 </r>
       <r>    1.7030    1.0000 </r>
       <r>    1.7069    1.0000 </r>
       <r>    2.3406    1.0000 </r>
       <r>    2.7069    1.0000 </r>
       <r>    2.7251    1.0000 </r>
       <r>    3.2639    1.0000 </r>
       <r>    3.3953    1.0000 </r>
       <r>    4.0082    1.0000 </r>
       <r>    4.1064    1.0000 </r>
       <r>    8.8390    0.0000 </r>
       <r>    9.0331    0.0000 </r>
       <r>    9.3310    0.0000 </r>
       <r>    9.3379    0.0000 </r>
      </set>
      <set comment="kpoint 5">
       <r>  -52.3009    1.0000 </r>
       <r>  -52.3009    1.0000 </r>
       <r>  -28.8224    1.0000 </r>
       <r>  -28.8194    1.0000 </r>
       <r>  -28.4718    1.0000 </r>
       <r>  -28.4679    1.0000 </r>
       <r>  -28.4563    1.0000 </r>
       <r>  -28.4558    1.0000 </r>
       <r>  -11.4940    1.0000 </r>
       <r>  -11.3128    1.0000 </r>
       <r>  -11.2810    1.0000 </r>
       <r>  -11.0951    1.0000 </r>
       <r>    0.8510    1.0000 </r>
       <r>    1.0693    1.0000 </r>
       <r>    1.3530    1.0000 </r>
       <r>    1.6179    1.0000 </r>
       <r>    1.6639    1.0000 </r>
       <r>    2.5225    1.0000 </r>
       <r>    2.7066    1.0000 </r>
       <r>    2.7361    1.0000 </r>
       <r>    3.3113    1.0000 </r>
       <r>    3.5227    1.0000 </r>
       <r>    3.9464    1.0000 </r>
       <r>    4.1115    1.0000 </r>
       <r>    8.7211    0.0000 </r>
       <r>    9.0119    0.0000 </r>
       <r>    9.3328    0.0000 </r>
       <r>    9.3440    0.0000 </r>
      </set>
      <set comment="kpoint 6">
       <r>  -52.3009    1.0000 </r>
       <r>  -52.3009    1.0000 </r>
       <r>  -28.8239    1.0000 </r>
       <r>  -28.8195    1.0000 </r>
       <r>  -28.4719    1.0000 </r>
       <r>  -28.4663    1.0000 </r>
       <r>  -28.4564    1.0000 </r>
       <r>  -28.4557    1.0000 </r>
       <r>  -11.5321    1.0000 </r>
       <r>  -11.3183    1.0000 </r>
       <r>  -11.2742    1.0000 </r>
       <r>  -11.0536    1.0000 </r>
       <r>    0.7720    1.0000 </r>
       <r>    1.1038    1.0000 </r>
       <r>    1.3102    1.0000 </r>
       <r>    1.5265    1.0000 </r>
       <r>    1.6148    1.0000 </r>
       <r>    2.6916    1.0000 </r>
       <r>    2.7067    1.0000 </r>
       <r>    2.7479    1.0000 </r>
       <r>    3.3700    1.0000 </r>
       <r>    3.6660    1.0000 </r>
       <r>    3.8814    1.0000 </r>
       <r>    4.1183    1.0000 </r>
       <r>    8.6017    0.0000 </r>
       <r>    8.9971    0.0000 </r>
       <r>    9.3349    0.0000 </r>
       <r>    9.3498    0.0000 </r>
      </set>
      <set comment="kpoint 7">
       <r>  -52.3009    1.0000 </r>
       <r>  -52.3009    1.0000 </r>
       <r>  -28.8253    1.0000 </r>
       <r>  -28.8197    1.0000 </r>
       <r>  -28.4721    1.0000 </r>
       <r>  -28.4649    1.0000 </r>
       <r>  -28.4565    1.0000 </r>
       <r>  -28.4555    1.0000 </r>
       <r>  -11.5638    1.0000 </r>
       <r>  -11.3247    1.0000 </r>
       <r>  -11.2662    1.0000 </r>
       <r>  -11.0183    1.0000 </r>
       <r>    0.6906    1.0000 </r>
       <r>    1.1397    1.0000 </r>
       <r>    1.2841    1.0000 </r>
       <r>    1.4338    1.0000 </r>
       <r>    1.5652    1.0000 </r>
       <r>    2.7075    1.0000 </r>
       <r>    2.7598    1.0000 </r>
       <r>    2.8311    1.0000 </r>
       <r>    3.4386    1.0000 </r>
       <r>    3.8179    1.0000 </r>
       <r>    3.8300    1.0000 </r>
       <r>    4.1266    1.0000 </r>
       <r>    8.4867    0.0000 </r>
       <r>    8.9639    0.0000 </r>
       <r>    9.3380    0.0000 </r>
       <r>    9.3561    0.0000 </r>
      </set>
      <set comment="kpoint 8">
       <r>  -52.3009    1.0000 </r>
       <r>  -52.3009    1.0000 </r>
       <r>  -28.8265    1.0000 </r>
       <r>  -28.8198    1.0000 </r>
       <r>  -28.4722    1.0000 </r>
       <r>  -28.4636    1.0000 </r>
       <r>  -28.4566    1.0000 </r>
       <r>  -28.4555    1.0000 </r>
       <r>  -11.5883    1.0000 </r>
       <r>  -11.3318    1.0000 </r>
       <r>  -11.2574    1.0000 </r>
       <r>  -10.9903    1.0000 </r>
       <r>    0.6145    1.0000 </r>
       <r>    1.1691    1.0000 </r>
       <r>    1.2677    1.0000 </r>
       <r>    1.3431    1.0000 </r>
       <r>    1.5240    1.0000 </r>
       <r>    2.7090    1.0000 </r>
       <r>    2.7706    1.0000 </r>
       <r>    2.9157    1.0000 </r>
       <r>    3.5153    1.0000 </r>
       <r>    3.8175    1.0000 </r>
       <r>    3.9726    1.0000 </r>
       <r>    4.1368    1.0000 </r>
       <r>    8.3818    0.0000 </r>
       <r>    9.3420    0.0000 </r>
       <r>    9.3529    0.0000 </r>
       <r>    9.3742    0.0000 </r>
      </set>
      <set comment="kpoint 9">
       <r>  -52.3009    1.0000 </r>
       <r>  -52.3009    1.0000 </r>
       <r>  -28.8274    1.0000 </r>
       <r>  -28.8199    1.0000 </r>
       <r>  -28.4724    1.0000 </r>
       <r>  -28.4628    1.0000 </r>
       <r>  -28.4567    1.0000 </r>
       <r>  -28.4554    1.0000 </r>
       <r>  -11.6052    1.0000 </r>
       <r>  -11.3395    1.0000 </r>
       <r>  -11.2478    1.0000 </r>
       <r>  -10.9702    1.0000 </r>
       <r>    0.5487    1.0000 </r>
       <r>    1.1797    1.0000 </r>
       <r>    1.2559    1.0000 </r>
       <r>    1.2567    1.0000 </r>
       <r>    1.5049    1.0000 </r>
       <r>    2.7112    1.0000 </r>
       <r>    2.7797    1.0000 </r>
       <r>    2.9252    1.0000 </r>
       <r>    3.5986    1.0000 </r>
       <r>    3.8650    1.0000 </r>
       <r>    4.1246    1.0000 </r>
       <r>    4.1488    1.0000 </r>
       <r>    8.2907    0.0000 </r>
       <r>    8.9051    0.0000 </r>
       <r>    9.3079    0.0000 </r>
       <r>    9.3472    0.0000 </r>
      </set>
      <set comment="kpoint 10">
       <r>  -52.3009    1.0000 </r>
       <r>  -52.3009    1.0000 </r>
       <r>  -28.8278    1.0000 </r>
       <r>  -28.8199    1.0000 </r>
       <r>  -28.4725    1.0000 </r>
       <r>  -28.4624    1.0000 </r>
       <r>  -28.4568    1.0000 </r>
       <r>  -28.4555    1.0000 </r>
       <r>  -11.6140    1.0000 </r>
       <r>  -11.3474    1.0000 </r>
       <r>  -11.2378    1.0000 </r>
       <r>  -10.9586    1.0000 </r>
       <r>    0.4962    1.0000 </r>
       <r>    1.1617    1.0000 </r>
       <r>    1.1760    1.0000 </r>
       <r>    1.2456    1.0000 </r>
       <r>    1.5186    1.0000 </r>
       <r>    2.7141    1.0000 </r>
       <r>    2.7865    1.0000 </r>
       <r>    2.8661    1.0000 </r>
       <r>    3.6864    1.0000 </r>
       <r>    3.9664    1.0000 </r>
       <r>    4.1621    1.0000 </r>
       <r>    4.2700    1.0000 </r>
       <r>    8.2192    0.0000 </r>
       <r>    9.2632    0.0000 </r>
       <r>    9.3530    0.0000 </r>
       <r>    9.3787    0.0000 </r>
      </set>
      <set comment="kpoint 11">
       <r>  -52.3009    1.0000 </r>
       <r>  -52.3009    1.0000 </r>
       <r>  -28.8278    1.0000 </r>
       <r>  -28.8198    1.0000 </r>
       <r>  -28.4727    1.0000 </r>
       <r>  -28.4626    1.0000 </r>
       <r>  -28.4569    1.0000 </r>
       <r>  -28.4556    1.0000 </r>
       <r>  -11.6146    1.0000 </r>
       <r>  -11.3553    1.0000 </r>
       <r>  -11.2277    1.0000 </r>
       <r>  -10.9559    1.0000 </r>
       <r>    0.4587    1.0000 </r>
       <r>    1.1019    1.0000 </r>
       <r>    1.1202    1.0000 </r>
       <r>    1.2344    1.0000 </r>
       <r>    1.5603    1.0000 </r>
       <r>    2.7174    1.0000 </r>
       <r>    2.7639    1.0000 </r>
       <r>    2.7906    1.0000 </r>
       <r>    3.7766    1.0000 </r>
       <r>    4.0971    1.0000 </r>
       <r>    4.1774    1.0000 </r>
       <r>    4.4034    1.0000 </r>
       <r>    8.1701    0.0000 </r>
       <r>    9.2256    0.0000 </r>
       <r>    9.3591    0.0000 </r>
       <r>    9.3838    0.0000 </r>
      </set>
      <set comment="kpoint 12">
       <r>  -52.3008    1.0000 </r>
       <r>  -52.3008    1.0000 </r>
       <r>  -28.8272    1.0000 </r>
       <r>  -28.8197    1.0000 </r>
       <r>  -28.4729    1.0000 </r>
       <r>  -28.4633    1.0000 </r>
       <r>  -28.4571    1.0000 </r>
       <r>  -28.4558    1.0000 </r>
       <r>  -11.6072    1.0000 </r>
       <r>  -11.3632    1.0000 </r>
       <r>  -11.2178    1.0000 </r>
       <r>  -10.9618    1.0000 </r>
       <r>    0.4369    1.0000 </r>
       <r>    1.0349    1.0000 </r>
       <r>    1.0672    1.0000 </r>
       <r>    1.2198    1.0000 </r>
       <r>    1.6181    1.0000 </r>
       <r>    2.6406    1.0000 </r>
       <r>    2.7210    1.0000 </r>
       <r>    2.7916    1.0000 </r>
       <r>    3.8669    1.0000 </r>
       <r>    4.1941    1.0000 </r>
       <r>    4.2366    1.0000 </r>
       <r>    4.5214    1.0000 </r>
       <r>    8.1477    0.0000 </r>
       <r>    8.8223    0.0000 </r>
       <r>    9.3050    0.0000 </r>
       <r>    9.3779    0.0000 </r>
      </set>
      <set comment="kpoint 13">
       <r>  -52.3008    1.0000 </r>
       <r>  -52.3008    1.0000 </r>
       <r>  -28.8263    1.0000 </r>
       <r>  -28.8195    1.0000 </r>
       <r>  -28.4730    1.0000 </r>
       <r>  -28.4644    1.0000 </r>
       <r>  -28.4572    1.0000 </r>
       <r>  -28.4560    1.0000 </r>
       <r>  -11.5921    1.0000 </r>
       <r>  -11.3707    1.0000 </r>
       <r>  -11.2082    1.0000 </r>
       <r>  -10.9762    1.0000 </r>
       <r>    0.4314    1.0000 </r>
       <r>    0.9756    1.0000 </r>
       <r>    1.0113    1.0000 </r>
       <r>    1.1997    1.0000 </r>
       <r>    1.6833    1.0000 </r>
       <r>    2.5110    1.0000 </r>
       <r>    2.7247    1.0000 </r>
       <r>    2.7896    1.0000 </r>
       <r>    3.9548    1.0000 </r>
       <r>    4.2120    1.0000 </r>
       <r>    4.3722    1.0000 </r>
       <r>    4.6211    1.0000 </r>
       <r>    8.1535    0.0000 </r>
       <r>    8.7905    0.0000 </r>
       <r>    9.2583    0.0000 </r>
       <r>    9.3802    0.0000 </r>
      </set>
      <set comment="kpoint 14">
       <r>  -52.3008    1.0000 </r>
       <r>  -52.3008    1.0000 </r>
       <r>  -28.8249    1.0000 </r>
       <r>  -28.8193    1.0000 </r>
       <r>  -28.4732    1.0000 </r>
       <r>  -28.4659    1.0000 </r>
       <r>  -28.4573    1.0000 </r>
       <r>  -28.4563    1.0000 </r>
       <r>  -11.5699    1.0000 </r>
       <r>  -11.3776    1.0000 </r>
       <r>  -11.1994    1.0000 </r>
       <r>  -10.9982    1.0000 </r>
       <r>    0.4420    1.0000 </r>
       <r>    0.9240    1.0000 </r>
       <r>    0.9576    1.0000 </r>
       <r>    1.1717    1.0000 </r>
       <r>    1.7502    1.0000 </r>
       <r>    2.3851    1.0000 </r>
       <r>    2.7284    1.0000 </r>
       <r>    2.7846    1.0000 </r>
       <r>    4.0378    1.0000 </r>
       <r>    4.2306    1.0000 </r>
       <r>    4.4966    1.0000 </r>
       <r>    4.7010    1.0000 </r>
       <r>    8.1882    0.0000 </r>
       <r>    8.7558    0.0000 </r>
       <r>    9.2054    0.0000 </r>
       <r>    9.3819    0.0000 </r>
      </set>
      <set comment="kpoint 15">
       <r>  -52.3008    1.0000 </r>
       <r>  -52.3008    1.0000 </r>
       <r>  -28.8234    1.0000 </r>
       <r>  -28.8190    1.0000 </r>
       <r>  -28.4733    1.0000 </r>
       <r>  -28.4677    1.0000 </r>
       <r>  -28.4574    1.0000 </r>
       <r>  -28.4566    1.0000 </r>
       <r>  -11.5415    1.0000 </r>
       <r>  -11.3838    1.0000 </r>
       <r>  -11.1914    1.0000 </r>
       <r>  -11.0269    1.0000 </r>
       <r>    0.4682    1.0000 </r>
       <r>    0.8804    1.0000 </r>
       <r>    0.9088    1.0000 </r>
       <r>    1.1333    1.0000 </r>
       <r>    1.8150    1.0000 </r>
       <r>    2.2703    1.0000 </r>
       <r>    2.7318    1.0000 </r>
       <r>    2.7771    1.0000 </r>
       <r>    4.1134    1.0000 </r>
       <r>    4.2491    1.0000 </r>
       <r>    4.6055    1.0000 </r>
       <r>    4.7614    1.0000 </r>
       <r>    8.2524    0.0000 </r>
       <r>    9.1814    0.0000 </r>
       <r>    9.2838    0.0000 </r>
       <r>    9.3882    0.0000 </r>
      </set>
      <set comment="kpoint 16">
       <r>  -52.3008    1.0000 </r>
       <r>  -52.3008    1.0000 </r>
       <r>  -28.8219    1.0000 </r>
       <r>  -28.8188    1.0000 </r>
       <r>  -28.4734    1.0000 </r>
       <r>  -28.4695    1.0000 </r>
       <r>  -28.4574    1.0000 </r>
       <r>  -28.4569    1.0000 </r>
       <r>  -11.5084    1.0000 </r>
       <r>  -11.3891    1.0000 </r>
       <r>  -11.1846    1.0000 </r>
       <r>  -11.0605    1.0000 </r>
       <r>    0.5092    1.0000 </r>
       <r>    0.8447    1.0000 </r>
       <r>    0.8670    1.0000 </r>
       <r>    1.0831    1.0000 </r>
       <r>    1.8743    1.0000 </r>
       <r>    2.1724    1.0000 </r>
       <r>    2.7350    1.0000 </r>
       <r>    2.7680    1.0000 </r>
       <r>    4.1792    1.0000 </r>
       <r>    4.2668    1.0000 </r>
       <r>    4.6963    1.0000 </r>
       <r>    4.8040    1.0000 </r>
       <r>    8.3357    0.0000 </r>
       <r>    8.7122    0.0000 </r>
       <r>    9.2010    0.0000 </r>
       <r>    9.3925    0.0000 </r>
      </set>
      <set comment="kpoint 17">
       <r>  -52.3008    1.0000 </r>
       <r>  -52.3008    1.0000 </r>
       <r>  -28.8204    1.0000 </r>
       <r>  -28.8185    1.0000 </r>
       <r>  -28.4735    1.0000 </r>
       <r>  -28.4711    1.0000 </r>
       <r>  -28.4575    1.0000 </r>
       <r>  -28.4572    1.0000 </r>
       <r>  -11.4728    1.0000 </r>
       <r>  -11.3935    1.0000 </r>
       <r>  -11.1791    1.0000 </r>
       <r>  -11.0969    1.0000 </r>
       <r>    0.5635    1.0000 </r>
       <r>    0.8170    1.0000 </r>
       <r>    0.8333    1.0000 </r>
       <r>    1.0206    1.0000 </r>
       <r>    1.9249    1.0000 </r>
       <r>    2.0951    1.0000 </r>
       <r>    2.7375    1.0000 </r>
       <r>    2.7582    1.0000 </r>
       <r>    4.2329    1.0000 </r>
       <r>    4.2824    1.0000 </r>
       <r>    4.7675    1.0000 </r>
       <r>    4.8319    1.0000 </r>
       <r>    8.4375    0.0000 </r>
       <r>    8.7077    0.0000 </r>
       <r>    9.3502    0.0000 </r>
       <r>    9.3968    0.0000 </r>
      </set>
      <set comment="kpoint 18">
       <r>  -52.3008    1.0000 </r>
       <r>  -52.3008    1.0000 </r>
       <r>  -28.8192    1.0000 </r>
       <r>  -28.8184    1.0000 </r>
       <r>  -28.4736    1.0000 </r>
       <r>  -28.4725    1.0000 </r>
       <r>  -28.4576    1.0000 </r>
       <r>  -28.4574    1.0000 </r>
       <r>  -11.4380    1.0000 </r>
       <r>  -11.3966    1.0000 </r>
       <r>  -11.1751    1.0000 </r>
       <r>  -11.1323    1.0000 </r>
       <r>    0.6293    1.0000 </r>
       <r>    0.7971    1.0000 </r>
       <r>    0.8086    1.0000 </r>
       <r>    0.9476    1.0000 </r>
       <r>    1.9638    1.0000 </r>
       <r>    2.0402    1.0000 </r>
       <r>    2.7394    1.0000 </r>
       <r>    2.7494    1.0000 </r>
       <r>    4.2728    1.0000 </r>
       <r>    4.2947    1.0000 </r>
       <r>    4.8185    1.0000 </r>
       <r>    4.8484    1.0000 </r>
       <r>    8.5462    0.0000 </r>
       <r>    9.0459    0.0000 </r>
       <r>    9.2166    0.0000 </r>
       <r>    9.3997    0.0000 </r>
      </set>
      <set comment="kpoint 19">
       <r>  -52.3008    1.0000 </r>
       <r>  -52.3008    1.0000 </r>
       <r>  -28.8185    1.0000 </r>
       <r>  -28.8183    1.0000 </r>
       <r>  -28.4736    1.0000 </r>
       <r>  -28.4733    1.0000 </r>
       <r>  -28.4576    1.0000 </r>
       <r>  -28.4576    1.0000 </r>
       <r>  -11.4104    1.0000 </r>
       <r>  -11.3985    1.0000 </r>
       <r>  -11.1726    1.0000 </r>
       <r>  -11.1604    1.0000 </r>
       <r>    0.7042    1.0000 </r>
       <r>    0.7853    1.0000 </r>
       <r>    0.7936    1.0000 </r>
       <r>    0.8676    1.0000 </r>
       <r>    1.9885    1.0000 </r>
       <r>    2.0077    1.0000 </r>
       <r>    2.7405    1.0000 </r>
       <r>    2.7431    1.0000 </r>
       <r>    4.2972    1.0000 </r>
       <r>    4.3027    1.0000 </r>
       <r>    4.8491    1.0000 </r>
       <r>    4.8568    1.0000 </r>
       <r>    8.6431    0.0000 </r>
       <r>    8.6785    0.0000 </r>
       <r>    9.2255    0.0000 </r>
       <r>    9.3983    0.0000 </r>
      </set>
      <set comment="kpoint 20">
       <r>  -52.3008    1.0000 </r>
       <r>  -52.3008    1.0000 </r>
       <r>  -28.8182    1.0000 </r>
       <r>  -28.8182    1.0000 </r>
       <r>  -28.4736    1.0000 </r>
       <r>  -28.4736    1.0000 </r>
       <r>  -28.4576    1.0000 </r>
       <r>  -28.4576    1.0000 </r>
       <r>  -11.3992    1.0000 </r>
       <r>  -11.3992    1.0000 </r>
       <r>  -11.1718    1.0000 </r>
       <r>  -11.1718    1.0000 </r>
       <r>    0.7813    1.0000 </r>
       <r>    0.7813    1.0000 </r>
       <r>    0.7886    1.0000 </r>
       <r>    0.7886    1.0000 </r>
       <r>    1.9970    1.0000 </r>
       <r>    1.9970    1.0000 </r>
       <r>    2.7409    1.0000 </r>
       <r>    2.7409    1.0000 </r>
       <r>    4.3055    1.0000 </r>
       <r>    4.3055    1.0000 </r>
       <r>    4.8593    1.0000 </r>
       <r>    4.8593    1.0000 </r>
       <r>    9.2279    0.0000 </r>
       <r>    9.2279    0.0000 </r>
       <r>    9.4021    0.0000 </r>
       <r>    9.4021    0.0000 </r>
      </set>
      <set comment="kpoint 21">
       <r>  -52.3008    1.0000 </r>
       <r>  -52.3008    1.0000 </r>
       <r>  -28.8182    1.0000 </r>
       <r>  -28.8182    1.0000 </r>
       <r>  -28.4736    1.0000 </r>
       <r>  -28.4736    1.0000 </r>
       <r>  -28.4576    1.0000 </r>
       <r>  -28.4576    1.0000 </r>
       <r>  -11.3992    1.0000 </r>
       <r>  -11.3992    1.0000 </r>
       <r>  -11.1718    1.0000 </r>
       <r>  -11.1718    1.0000 </r>
       <r>    0.7813    1.0000 </r>
       <r>    0.7813    1.0000 </r>
       <r>    0.7886    1.0000 </r>
       <r>    0.7886    1.0000 </r>
       <r>    1.9970    1.0000 </r>
       <r>    1.9970    1.0000 </r>
       <r>    2.7409    1.0000 </r>
       <r>    2.7409    1.0000 </r>
       <r>    4.3055    1.0000 </r>
       <r>    4.3055    1.0000 </r>
       <r>    4.8593    1.0000 </r>
       <r>    4.8593    1.0000 </r>
       <r>    8.6761    0.0000 </r>
       <r>    8.6762    0.0000 </r>
       <r>    9.2280    0.0000 </r>
       <r>    9.3485    0.0000 </r>
      </set>
      <set comment="kpoint 22">
       <r>  -52.3011    1.0000 </r>
       <r>  -52.3011    1.0000 </r>
       <r>  -28.8154    1.0000 </r>
       <r>  -28.8154    1.0000 </r>
       <r>  -28.4765    1.0000 </r>
       <r>  -28.4765    1.0000 </r>
       <r>  -28.4557    1.0000 </r>
       <r>  -28.4557    1.0000 </r>
       <r>  -11.3963    1.0000 </r>
       <r>  -11.3963    1.0000 </r>
       <r>  -11.1781    1.0000 </r>
       <r>  -11.1781    1.0000 </r>
       <r>    0.7793    1.0000 </r>
       <r>    0.7793    1.0000 </r>
       <r>    0.7916    1.0000 </r>
       <r>    0.7916    1.0000 </r>
       <r>    1.9985    1.0000 </r>
       <r>    1.9985    1.0000 </r>
       <r>    2.7543    1.0000 </r>
       <r>    2.7543    1.0000 </r>
       <r>    4.2983    1.0000 </r>
       <r>    4.2983    1.0000 </r>
       <r>    4.8509    1.0000 </r>
       <r>    4.8509    1.0000 </r>
       <r>    8.6860    0.0000 </r>
       <r>    8.6877    0.0000 </r>
       <r>    9.2603    0.0000 </r>
       <r>    9.3599    0.0000 </r>
      </set>
      <set comment="kpoint 23">
       <r>  -52.3019    1.0000 </r>
       <r>  -52.3019    1.0000 </r>
       <r>  -28.8070    1.0000 </r>
       <r>  -28.8070    1.0000 </r>
       <r>  -28.4828    1.0000 </r>
       <r>  -28.4828    1.0000 </r>
       <r>  -28.4520    1.0000 </r>
       <r>  -28.4520    1.0000 </r>
       <r>  -11.3879    1.0000 </r>
       <r>  -11.3879    1.0000 </r>
       <r>  -11.1970    1.0000 </r>
       <r>  -11.1970    1.0000 </r>
       <r>    0.7738    1.0000 </r>
       <r>    0.7738    1.0000 </r>
       <r>    0.7991    1.0000 </r>
       <r>    0.7991    1.0000 </r>
       <r>    2.0048    1.0000 </r>
       <r>    2.0048    1.0000 </r>
       <r>    2.7936    1.0000 </r>
       <r>    2.7936    1.0000 </r>
       <r>    4.2772    1.0000 </r>
       <r>    4.2772    1.0000 </r>
       <r>    4.8255    1.0000 </r>
       <r>    4.8255    1.0000 </r>
       <r>    8.7149    0.0000 </r>
       <r>    8.7198    0.0000 </r>
       <r>    9.2744    0.0000 </r>
       <r>    9.3501    0.0000 </r>
      </set>
      <set comment="kpoint 24">
       <r>  -52.3032    1.0000 </r>
       <r>  -52.3032    1.0000 </r>
       <r>  -28.7933    1.0000 </r>
       <r>  -28.7933    1.0000 </r>
       <r>  -28.4909    1.0000 </r>
       <r>  -28.4909    1.0000 </r>
       <r>  -28.4483    1.0000 </r>
       <r>  -28.4483    1.0000 </r>
       <r>  -11.3741    1.0000 </r>
       <r>  -11.3741    1.0000 </r>
       <r>  -11.2278    1.0000 </r>
       <r>  -11.2278    1.0000 </r>
       <r>    0.7667    1.0000 </r>
       <r>    0.7667    1.0000 </r>
       <r>    0.8066    1.0000 </r>
       <r>    0.8066    1.0000 </r>
       <r>    2.0205    1.0000 </r>
       <r>    2.0205    1.0000 </r>
       <r>    2.8566    1.0000 </r>
       <r>    2.8566    1.0000 </r>
       <r>    4.2432    1.0000 </r>
       <r>    4.2432    1.0000 </r>
       <r>    4.7830    1.0000 </r>
       <r>    4.7830    1.0000 </r>
       <r>    8.7633    0.0000 </r>
       <r>    8.7633    0.0000 </r>
       <r>    9.3095    0.0000 </r>
       <r>    9.3095    0.0000 </r>
      </set>
      <set comment="kpoint 25">
       <r>  -52.3050    1.0000 </r>
       <r>  -52.3050    1.0000 </r>
       <r>  -28.7745    1.0000 </r>
       <r>  -28.7745    1.0000 </r>
       <r>  -28.4999    1.0000 </r>
       <r>  -28.4999    1.0000 </r>
       <r>  -28.4452    1.0000 </r>
       <r>  -28.4452    1.0000 </r>
       <r>  -11.3553    1.0000 </r>
       <r>  -11.3553    1.0000 </r>
       <r>  -11.2695    1.0000 </r>
       <r>  -11.2695    1.0000 </r>
       <r>    0.7604    1.0000 </r>
       <r>    0.7604    1.0000 </r>
       <r>    0.8079    1.0000 </r>
       <r>    0.8079    1.0000 </r>
       <r>    2.0527    1.0000 </r>
       <r>    2.0527    1.0000 </r>
       <r>    2.9403    1.0000 </r>
       <r>    2.9403    1.0000 </r>
       <r>    4.1980    1.0000 </r>
       <r>    4.1980    1.0000 </r>
       <r>    4.7233    1.0000 </r>
       <r>    4.7233    1.0000 </r>
       <r>    8.8224    0.0000 </r>
       <r>    8.8278    0.0000 </r>
       <r>    9.1632    0.0000 </r>
       <r>    9.2602    0.0000 </r>
      </set>
      <set comment="kpoint 26">
       <r>  -52.3072    1.0000 </r>
       <r>  -52.3072    1.0000 </r>
       <r>  -28.7512    1.0000 </r>
       <r>  -28.7512    1.0000 </r>
       <r>  -28.5097    1.0000 </r>
       <r>  -28.5097    1.0000 </r>
       <r>  -28.4427    1.0000 </r>
       <r>  -28.4427    1.0000 </r>
       <r>  -11.3320    1.0000 </r>
       <r>  -11.3320    1.0000 </r>
       <r>  -11.3210    1.0000 </r>
       <r>  -11.3210    1.0000 </r>
       <r>    0.7578    1.0000 </r>
       <r>    0.7578    1.0000 </r>
       <r>    0.7962    1.0000 </r>
       <r>    0.7962    1.0000 </r>
       <r>    2.1086    1.0000 </r>
       <r>    2.1086    1.0000 </r>
       <r>    3.0407    1.0000 </r>
       <r>    3.0407    1.0000 </r>
       <r>    4.1437    1.0000 </r>
       <r>    4.1437    1.0000 </r>
       <r>    4.6464    1.0000 </r>
       <r>    4.6464    1.0000 </r>
       <r>    8.8979    0.0000 </r>
       <r>    8.9009    0.0000 </r>
       <r>    9.1388    0.0000 </r>
       <r>    9.1832    0.0000 </r>
      </set>
      <set comment="kpoint 27">
       <r>  -52.3098    1.0000 </r>
       <r>  -52.3098    1.0000 </r>
       <r>  -28.7240    1.0000 </r>
       <r>  -28.7240    1.0000 </r>
       <r>  -28.5201    1.0000 </r>
       <r>  -28.5201    1.0000 </r>
       <r>  -28.4410    1.0000 </r>
       <r>  -28.4410    1.0000 </r>
       <r>  -11.3805    1.0000 </r>
       <r>  -11.3805    1.0000 </r>
       <r>  -11.3049    1.0000 </r>
       <r>  -11.3049    1.0000 </r>
       <r>    0.7617    1.0000 </r>
       <r>    0.7617    1.0000 </r>
       <r>    0.7668    1.0000 </r>
       <r>    0.7668    1.0000 </r>
       <r>    2.1935    1.0000 </r>
       <r>    2.1935    1.0000 </r>
       <r>    3.1537    1.0000 </r>
       <r>    3.1537    1.0000 </r>
       <r>    4.0824    1.0000 </r>
       <r>    4.0824    1.0000 </r>
       <r>    4.5524    1.0000 </r>
       <r>    4.5524    1.0000 </r>
       <r>    8.9972    0.0000 </r>
       <r>    8.9972    0.0000 </r>
       <r>    9.1021    0.0000 </r>
       <r>    9.1021    0.0000 </r>
      </set>
      <set comment="kpoint 28">
       <r>  -52.3127    1.0000 </r>
       <r>  -52.3127    1.0000 </r>
       <r>  -28.6935    1.0000 </r>
       <r>  -28.6935    1.0000 </r>
       <r>  -28.5308    1.0000 </r>
       <r>  -28.5308    1.0000 </r>
       <r>  -28.4398    1.0000 </r>
       <r>  -28.4398    1.0000 </r>
       <r>  -11.4465    1.0000 </r>
       <r>  -11.4465    1.0000 </r>
       <r>  -11.2748    1.0000 </r>
       <r>  -11.2748    1.0000 </r>
       <r>    0.7186    1.0000 </r>
       <r>    0.7186    1.0000 </r>
       <r>    0.7744    1.0000 </r>
       <r>    0.7744    1.0000 </r>
       <r>    2.3090    1.0000 </r>
       <r>    2.3090    1.0000 </r>
       <r>    3.2753    1.0000 </r>
       <r>    3.2753    1.0000 </r>
       <r>    4.0165    1.0000 </r>
       <r>    4.0165    1.0000 </r>
       <r>    4.4422    1.0000 </r>
       <r>    4.4422    1.0000 </r>
       <r>    9.0093    0.0000 </r>
       <r>    9.0291    0.0000 </r>
       <r>    9.0522    0.0000 </r>
       <r>    9.0654    0.0000 </r>
      </set>
      <set comment="kpoint 29">
       <r>  -52.3157    1.0000 </r>
       <r>  -52.3157    1.0000 </r>
       <r>  -28.6605    1.0000 </r>
       <r>  -28.6605    1.0000 </r>
       <r>  -28.5416    1.0000 </r>
       <r>  -28.5416    1.0000 </r>
       <r>  -28.4392    1.0000 </r>
       <r>  -28.4392    1.0000 </r>
       <r>  -11.5168    1.0000 </r>
       <r>  -11.5168    1.0000 </r>
       <r>  -11.2423    1.0000 </r>
       <r>  -11.2423    1.0000 </r>
       <r>    0.6541    1.0000 </r>
       <r>    0.6541    1.0000 </r>
       <r>    0.7980    1.0000 </r>
       <r>    0.7980    1.0000 </r>
       <r>    2.4530    1.0000 </r>
       <r>    2.4530    1.0000 </r>
       <r>    3.4009    1.0000 </r>
       <r>    3.4009    1.0000 </r>
       <r>    3.9481    1.0000 </r>
       <r>    3.9481    1.0000 </r>
       <r>    4.3171    1.0000 </r>
       <r>    4.3171    1.0000 </r>
       <r>    8.9091    0.0000 </r>
       <r>    8.9091    0.0000 </r>
       <r>    9.0058    0.0000 </r>
       <r>    9.0058    0.0000 </r>
      </set>
      <set comment="kpoint 30">
       <r>  -52.3189    1.0000 </r>
       <r>  -52.3189    1.0000 </r>
       <r>  -28.6260    1.0000 </r>
       <r>  -28.6260    1.0000 </r>
       <r>  -28.5524    1.0000 </r>
       <r>  -28.5524    1.0000 </r>
       <r>  -28.4391    1.0000 </r>
       <r>  -28.4391    1.0000 </r>
       <r>  -11.5897    1.0000 </r>
       <r>  -11.5897    1.0000 </r>
       <r>  -11.2086    1.0000 </r>
       <r>  -11.2086    1.0000 </r>
       <r>    0.5774    1.0000 </r>
       <r>    0.5774    1.0000 </r>
       <r>    0.8341    1.0000 </r>
       <r>    0.8341    1.0000 </r>
       <r>    2.6208    1.0000 </r>
       <r>    2.6208    1.0000 </r>
       <r>    3.5247    1.0000 </r>
       <r>    3.5247    1.0000 </r>
       <r>    3.8795    1.0000 </r>
       <r>    3.8795    1.0000 </r>
       <r>    4.1805    1.0000 </r>
       <r>    4.1805    1.0000 </r>
       <r>    8.8024    0.0000 </r>
       <r>    8.8024    0.0000 </r>
       <r>    8.9332    0.0000 </r>
       <r>    8.9332    0.0000 </r>
      </set>
      <set comment="kpoint 31">
       <r>  -52.3222    1.0000 </r>
       <r>  -52.3222    1.0000 </r>
       <r>  -28.5907    1.0000 </r>
       <r>  -28.5907    1.0000 </r>
       <r>  -28.5629    1.0000 </r>
       <r>  -28.5629    1.0000 </r>
       <r>  -28.4393    1.0000 </r>
       <r>  -28.4393    1.0000 </r>
       <r>  -11.6631    1.0000 </r>
       <r>  -11.6631    1.0000 </r>
       <r>  -11.1744    1.0000 </r>
       <r>  -11.1744    1.0000 </r>
       <r>    0.4935    1.0000 </r>
       <r>    0.4935    1.0000 </r>
       <r>    0.8837    1.0000 </r>
       <r>    0.8837    1.0000 </r>
       <r>    2.8066    1.0000 </r>
       <r>    2.8066    1.0000 </r>
       <r>    3.6349    1.0000 </r>
       <r>    3.6349    1.0000 </r>
       <r>    3.8124    1.0000 </r>
       <r>    3.8124    1.0000 </r>
       <r>    4.0425    1.0000 </r>
       <r>    4.0425    1.0000 </r>
       <r>    8.6921    0.0000 </r>
       <r>    8.6921    0.0000 </r>
       <r>    8.8816    0.0000 </r>
       <r>    9.3665    0.0000 </r>
      </set>
      <set comment="kpoint 32">
       <r>  -52.3254    1.0000 </r>
       <r>  -52.3254    1.0000 </r>
       <r>  -28.5730    1.0000 </r>
       <r>  -28.5730    1.0000 </r>
       <r>  -28.5558    1.0000 </r>
       <r>  -28.5558    1.0000 </r>
       <r>  -28.4398    1.0000 </r>
       <r>  -28.4398    1.0000 </r>
       <r>  -11.7351    1.0000 </r>
       <r>  -11.7351    1.0000 </r>
       <r>  -11.1407    1.0000 </r>
       <r>  -11.1407    1.0000 </r>
       <r>    0.4069    1.0000 </r>
       <r>    0.4069    1.0000 </r>
       <r>    0.9474    1.0000 </r>
       <r>    0.9474    1.0000 </r>
       <r>    3.0043    1.0000 </r>
       <r>    3.0043    1.0000 </r>
       <r>    3.6848    1.0000 </r>
       <r>    3.6848    1.0000 </r>
       <r>    3.7483    1.0000 </r>
       <r>    3.7483    1.0000 </r>
       <r>    3.9486    1.0000 </r>
       <r>    3.9486    1.0000 </r>
       <r>    8.5792    0.0000 </r>
       <r>    8.5792    0.0000 </r>
       <r>    8.8321    0.0000 </r>
       <r>    8.8342    0.0000 </r>
      </set>
      <set comment="kpoint 33">
       <r>  -52.3284    1.0000 </r>
       <r>  -52.3284    1.0000 </r>
       <r>  -28.5824    1.0000 </r>
       <r>  -28.5824    1.0000 </r>
       <r>  -28.5221    1.0000 </r>
       <r>  -28.5221    1.0000 </r>
       <r>  -28.4405    1.0000 </r>
       <r>  -28.4405    1.0000 </r>
       <r>  -11.8036    1.0000 </r>
       <r>  -11.8036    1.0000 </r>
       <r>  -11.1084    1.0000 </r>
       <r>  -11.1084    1.0000 </r>
       <r>    0.3217    1.0000 </r>
       <r>    0.3217    1.0000 </r>
       <r>    1.0252    1.0000 </r>
       <r>    1.0252    1.0000 </r>
       <r>    3.2072    1.0000 </r>
       <r>    3.2072    1.0000 </r>
       <r>    3.5925    1.0000 </r>
       <r>    3.5925    1.0000 </r>
       <r>    3.6887    1.0000 </r>
       <r>    3.6887    1.0000 </r>
       <r>    3.9804    1.0000 </r>
       <r>    3.9804    1.0000 </r>
       <r>    8.4656    0.0000 </r>
       <r>    8.4656    0.0000 </r>
       <r>    8.7833    0.0000 </r>
       <r>    8.7836    0.0000 </r>
      </set>
      <set comment="kpoint 34">
       <r>  -52.3313    1.0000 </r>
       <r>  -52.3313    1.0000 </r>
       <r>  -28.5910    1.0000 </r>
       <r>  -28.5910    1.0000 </r>
       <r>  -28.4906    1.0000 </r>
       <r>  -28.4906    1.0000 </r>
       <r>  -28.4413    1.0000 </r>
       <r>  -28.4413    1.0000 </r>
       <r>  -11.8670    1.0000 </r>
       <r>  -11.8670    1.0000 </r>
       <r>  -11.0785    1.0000 </r>
       <r>  -11.0785    1.0000 </r>
       <r>    0.2414    1.0000 </r>
       <r>    0.2414    1.0000 </r>
       <r>    1.1164    1.0000 </r>
       <r>    1.1164    1.0000 </r>
       <r>    3.4086    1.0000 </r>
       <r>    3.4086    1.0000 </r>
       <r>    3.4299    1.0000 </r>
       <r>    3.4299    1.0000 </r>
       <r>    3.6348    1.0000 </r>
       <r>    3.6348    1.0000 </r>
       <r>    4.0664    1.0000 </r>
       <r>    4.0664    1.0000 </r>
       <r>    8.3535    0.0000 </r>
       <r>    8.3535    0.0000 </r>
       <r>    8.7398    0.0000 </r>
       <r>    8.7398    0.0000 </r>
      </set>
      <set comment="kpoint 35">
       <r>  -52.3338    1.0000 </r>
       <r>  -52.3338    1.0000 </r>
       <r>  -28.5986    1.0000 </r>
       <r>  -28.5986    1.0000 </r>
       <r>  -28.4622    1.0000 </r>
       <r>  -28.4622    1.0000 </r>
       <r>  -28.4422    1.0000 </r>
       <r>  -28.4422    1.0000 </r>
       <r>  -11.9237    1.0000 </r>
       <r>  -11.9237    1.0000 </r>
       <r>  -11.0517    1.0000 </r>
       <r>  -11.0517    1.0000 </r>
       <r>    0.1689    1.0000 </r>
       <r>    0.1689    1.0000 </r>
       <r>    1.2195    1.0000 </r>
       <r>    1.2195    1.0000 </r>
       <r>    3.2512    1.0000 </r>
       <r>    3.2512    1.0000 </r>
       <r>    3.5876    1.0000 </r>
       <r>    3.5876    1.0000 </r>
       <r>    3.6008    1.0000 </r>
       <r>    3.6008    1.0000 </r>
       <r>    4.1541    1.0000 </r>
       <r>    4.1541    1.0000 </r>
       <r>    8.2459    0.0000 </r>
       <r>    8.2459    0.0000 </r>
       <r>    8.7015    0.0000 </r>
       <r>    8.7046    0.0000 </r>
      </set>
      <set comment="kpoint 36">
       <r>  -52.3360    1.0000 </r>
       <r>  -52.3360    1.0000 </r>
       <r>  -28.6051    1.0000 </r>
       <r>  -28.6051    1.0000 </r>
       <r>  -28.4430    1.0000 </r>
       <r>  -28.4430    1.0000 </r>
       <r>  -28.4378    1.0000 </r>
       <r>  -28.4378    1.0000 </r>
       <r>  -11.9721    1.0000 </r>
       <r>  -11.9721    1.0000 </r>
       <r>  -11.0287    1.0000 </r>
       <r>  -11.0287    1.0000 </r>
       <r>    0.1067    1.0000 </r>
       <r>    0.1067    1.0000 </r>
       <r>    1.3316    1.0000 </r>
       <r>    1.3316    1.0000 </r>
       <r>    3.0713    1.0000 </r>
       <r>    3.0713    1.0000 </r>
       <r>    3.5480    1.0000 </r>
       <r>    3.5480    1.0000 </r>
       <r>    3.7759    1.0000 </r>
       <r>    3.7759    1.0000 </r>
       <r>    4.2316    1.0000 </r>
       <r>    4.2316    1.0000 </r>
       <r>    8.1467    0.0000 </r>
       <r>    8.1467    0.0000 </r>
       <r>    8.6700    0.0000 </r>
       <r>    8.6701    0.0000 </r>
      </set>
      <set comment="kpoint 37">
       <r>  -52.3378    1.0000 </r>
       <r>  -52.3378    1.0000 </r>
       <r>  -28.6102    1.0000 </r>
       <r>  -28.6102    1.0000 </r>
       <r>  -28.4436    1.0000 </r>
       <r>  -28.4436    1.0000 </r>
       <r>  -28.4179    1.0000 </r>
       <r>  -28.4179    1.0000 </r>
       <r>  -12.0111    1.0000 </r>
       <r>  -12.0111    1.0000 </r>
       <r>  -11.0101    1.0000 </r>
       <r>  -11.0101    1.0000 </r>
       <r>    0.0564    1.0000 </r>
       <r>    0.0564    1.0000 </r>
       <r>    1.4472    1.0000 </r>
       <r>    1.4472    1.0000 </r>
       <r>    2.8998    1.0000 </r>
       <r>    2.8998    1.0000 </r>
       <r>    3.5165    1.0000 </r>
       <r>    3.5165    1.0000 </r>
       <r>    3.9251    1.0000 </r>
       <r>    3.9251    1.0000 </r>
       <r>    4.2946    1.0000 </r>
       <r>    4.2946    1.0000 </r>
       <r>    8.0607    0.0000 </r>
       <r>    8.0607    0.0000 </r>
       <r>    8.6452    0.0000 </r>
       <r>    8.6452    0.0000 </r>
      </set>
      <set comment="kpoint 38">
       <r>  -52.3391    1.0000 </r>
       <r>  -52.3391    1.0000 </r>
       <r>  -28.6140    1.0000 </r>
       <r>  -28.6140    1.0000 </r>
       <r>  -28.4442    1.0000 </r>
       <r>  -28.4442    1.0000 </r>
       <r>  -28.4033    1.0000 </r>
       <r>  -28.4033    1.0000 </r>
       <r>  -12.0397    1.0000 </r>
       <r>  -12.0397    1.0000 </r>
       <r>  -10.9965    1.0000 </r>
       <r>  -10.9965    1.0000 </r>
       <r>    0.0195    1.0000 </r>
       <r>    0.0195    1.0000 </r>
       <r>    1.5563    1.0000 </r>
       <r>    1.5563    1.0000 </r>
       <r>    2.7494    1.0000 </r>
       <r>    2.7494    1.0000 </r>
       <r>    3.4937    1.0000 </r>
       <r>    3.4937    1.0000 </r>
       <r>    4.0399    1.0000 </r>
       <r>    4.0399    1.0000 </r>
       <r>    4.3410    1.0000 </r>
       <r>    4.3410    1.0000 </r>
       <r>    7.9935    0.0000 </r>
       <r>    7.9935    0.0000 </r>
       <r>    8.6275    0.0000 </r>
       <r>    8.6275    0.0000 </r>
      </set>
      <set comment="kpoint 39">
       <r>  -52.3399    1.0000 </r>
       <r>  -52.3399    1.0000 </r>
       <r>  -28.6163    1.0000 </r>
       <r>  -28.6163    1.0000 </r>
       <r>  -28.4445    1.0000 </r>
       <r>  -28.4445    1.0000 </r>
       <r>  -28.3944    1.0000 </r>
       <r>  -28.3944    1.0000 </r>
       <r>  -12.0571    1.0000 </r>
       <r>  -12.0571    1.0000 </r>
       <r>  -10.9882    1.0000 </r>
       <r>  -10.9882    1.0000 </r>
       <r>   -0.0031    1.0000 </r>
       <r>   -0.0031    1.0000 </r>
       <r>    1.6404    1.0000 </r>
       <r>    1.6404    1.0000 </r>
       <r>    2.6398    1.0000 </r>
       <r>    2.6398    1.0000 </r>
       <r>    3.4799    1.0000 </r>
       <r>    3.4799    1.0000 </r>
       <r>    4.1125    1.0000 </r>
       <r>    4.1125    1.0000 </r>
       <r>    4.3692    1.0000 </r>
       <r>    4.3692    1.0000 </r>
       <r>    7.9505    0.0000 </r>
       <r>    7.9505    0.0000 </r>
       <r>    8.6168    0.0000 </r>
       <r>    8.6168    0.0000 </r>
      </set>
      <set comment="kpoint 40">
       <r>  -52.3401    1.0000 </r>
       <r>  -52.3401    1.0000 </r>
       <r>  -28.6171    1.0000 </r>
       <r>  -28.6171    1.0000 </r>
       <r>  -28.4446    1.0000 </r>
       <r>  -28.4446    1.0000 </r>
       <r>  -28.3914    1.0000 </r>
       <r>  -28.3914    1.0000 </r>
       <r>  -12.0630    1.0000 </r>
       <r>  -12.0630    1.0000 </r>
       <r>  -10.9854    1.0000 </r>
       <r>  -10.9854    1.0000 </r>
       <r>   -0.0106    1.0000 </r>
       <r>   -0.0106    1.0000 </r>
       <r>    1.6735    1.0000 </r>
       <r>    1.6735    1.0000 </r>
       <r>    2.5982    1.0000 </r>
       <r>    2.5982    1.0000 </r>
       <r>    3.4753    1.0000 </r>
       <r>    3.4753    1.0000 </r>
       <r>    4.1373    1.0000 </r>
       <r>    4.1373    1.0000 </r>
       <r>    4.3788    1.0000 </r>
       <r>    4.3788    1.0000 </r>
       <r>    7.9356    0.0000 </r>
       <r>    7.9356    0.0000 </r>
       <r>    8.6132    0.0000 </r>
       <r>    8.6132    0.0000 </r>
      </set>
      <set comment="kpoint 41">
       <r>  -52.3401    1.0000 </r>
       <r>  -52.3401    1.0000 </r>
       <r>  -28.6171    1.0000 </r>
       <r>  -28.6171    1.0000 </r>
       <r>  -28.4446    1.0000 </r>
       <r>  -28.4446    1.0000 </r>
       <r>  -28.3914    1.0000 </r>
       <r>  -28.3914    1.0000 </r>
       <r>  -12.0630    1.0000 </r>
       <r>  -12.0630    1.0000 </r>
       <r>  -10.9854    1.0000 </r>
       <r>  -10.9854    1.0000 </r>
       <r>   -0.0106    1.0000 </r>
       <r>   -0.0106    1.0000 </r>
       <r>    1.6735    1.0000 </r>
       <r>    1.6735    1.0000 </r>
       <r>    2.5982    1.0000 </r>
       <r>    2.5982    1.0000 </r>
       <r>    3.4753    1.0000 </r>
       <r>    3.4753    1.0000 </r>
       <r>    4.1373    1.0000 </r>
       <r>    4.1373    1.0000 </r>
       <r>    4.3788    1.0000 </r>
       <r>    4.3788    1.0000 </r>
       <r>    7.9356    0.0000 </r>
       <r>    7.9356    0.0000 </r>
       <r>    8.6132    0.0000 </r>
       <r>    8.6132    0.0000 </r>
      </set>
      <set comment="kpoint 42">
       <r>  -52.3402    1.0000 </r>
       <r>  -52.3401    1.0000 </r>
       <r>  -28.6170    1.0000 </r>
       <r>  -28.6161    1.0000 </r>
       <r>  -28.4456    1.0000 </r>
       <r>  -28.4446    1.0000 </r>
       <r>  -28.3915    1.0000 </r>
       <r>  -28.3913    1.0000 </r>
       <r>  -12.0674    1.0000 </r>
       <r>  -12.0574    1.0000 </r>
       <r>  -10.9881    1.0000 </r>
       <r>  -10.9845    1.0000 </r>
       <r>   -0.0107    1.0000 </r>
       <r>    0.0030    1.0000 </r>
       <r>    1.6740    1.0000 </r>
       <r>    1.6759    1.0000 </r>
       <r>    2.5648    1.0000 </r>
       <r>    2.6018    1.0000 </r>
       <r>    3.4647    1.0000 </r>
       <r>    3.5043    1.0000 </r>
       <r>    4.1279    1.0000 </r>
       <r>    4.1391    1.0000 </r>
       <r>    4.3479    1.0000 </r>
[...]
       <r>    0.7029    1.0000 </r>
       <r>    1.7474    1.0000 </r>
       <r>    1.7493    1.0000 </r>
       <r>    2.8333    1.0000 </r>
       <r>    2.8643    1.0000 </r>
       <r>    3.4441    1.0000 </r>
       <r>    4.7278    1.0000 </r>
       <r>    4.9396    1.0000 </r>
       <r>    4.9993    1.0000 </r>
       <r>    5.5761    1.0000 </r>
       <r>    7.9778    0.0000 </r>
       <r>    8.1968    0.0000 </r>
       <r>    8.5565    0.0000 </r>
       <r>    8.6276    0.0000 </r>
      </set>
      <set comment="kpoint 138">
       <r>  -52.3484    1.0000 </r>
       <r>  -52.3320    1.0000 </r>
       <r>  -28.6045    1.0000 </r>
       <r>  -28.6044    1.0000 </r>
       <r>  -28.4530    1.0000 </r>
       <r>  -28.4529    1.0000 </r>
       <r>  -28.4075    1.0000 </r>
       <r>  -28.3755    1.0000 </r>
       <r>  -12.7690    1.0000 </r>
       <r>  -11.5110    1.0000 </r>
       <r>  -10.8585    1.0000 </r>
       <r>  -10.8515    1.0000 </r>
       <r>   -0.2839    1.0000 </r>
       <r>    0.2599    1.0000 </r>
       <r>    0.6812    1.0000 </r>
       <r>    1.7465    1.0000 </r>
       <r>    1.7473    1.0000 </r>
       <r>    2.8542    1.0000 </r>
       <r>    2.8683    1.0000 </r>
       <r>    3.4405    1.0000 </r>
       <r>    4.7492    1.0000 </r>
       <r>    5.0016    1.0000 </r>
       <r>    5.0281    1.0000 </r>
       <r>    5.5900    1.0000 </r>
       <r>    7.9596    0.0000 </r>
       <r>    8.1677    0.0000 </r>
       <r>    8.5326    0.0000 </r>
       <r>    8.6079    0.0000 </r>
      </set>
      <set comment="kpoint 139">
       <r>  -52.3485    1.0000 </r>
       <r>  -52.3319    1.0000 </r>
       <r>  -28.6051    1.0000 </r>
       <r>  -28.6051    1.0000 </r>
       <r>  -28.4522    1.0000 </r>
       <r>  -28.4522    1.0000 </r>
       <r>  -28.4077    1.0000 </r>
       <r>  -28.3753    1.0000 </r>
       <r>  -12.7765    1.0000 </r>
       <r>  -11.5103    1.0000 </r>
       <r>  -10.8508    1.0000 </r>
       <r>  -10.8490    1.0000 </r>
       <r>   -0.2986    1.0000 </r>
       <r>    0.2518    1.0000 </r>
       <r>    0.6682    1.0000 </r>
       <r>    1.7459    1.0000 </r>
       <r>    1.7461    1.0000 </r>
       <r>    2.8671    1.0000 </r>
       <r>    2.8706    1.0000 </r>
       <r>    3.4385    1.0000 </r>
       <r>    4.7622    1.0000 </r>
       <r>    5.0397    1.0000 </r>
       <r>    5.0463    1.0000 </r>
       <r>    5.5982    1.0000 </r>
       <r>    7.9490    0.0000 </r>
       <r>    8.1640    0.0000 </r>
       <r>    8.5180    0.0000 </r>
       <r>    8.5956    0.0000 </r>
      </set>
      <set comment="kpoint 140">
       <r>  -52.3486    1.0000 </r>
       <r>  -52.3319    1.0000 </r>
       <r>  -28.6053    1.0000 </r>
       <r>  -28.6053    1.0000 </r>
       <r>  -28.4520    1.0000 </r>
       <r>  -28.4520    1.0000 </r>
       <r>  -28.4078    1.0000 </r>
       <r>  -28.3753    1.0000 </r>
       <r>  -12.7791    1.0000 </r>
       <r>  -11.5101    1.0000 </r>
       <r>  -10.8482    1.0000 </r>
       <r>  -10.8482    1.0000 </r>
       <r>   -0.3035    1.0000 </r>
       <r>    0.2490    1.0000 </r>
       <r>    0.6639    1.0000 </r>
       <r>    1.7457    1.0000 </r>
       <r>    1.7457    1.0000 </r>
       <r>    2.8714    1.0000 </r>
       <r>    2.8714    1.0000 </r>
       <r>    3.4378    1.0000 </r>
       <r>    4.7666    1.0000 </r>
       <r>    5.0526    1.0000 </r>
       <r>    5.0526    1.0000 </r>
       <r>    5.6009    1.0000 </r>
       <r>    7.9469    0.0000 </r>
       <r>    8.5119    0.0000 </r>
       <r>    8.5232    0.0000 </r>
       <r>    8.5914    0.0000 </r>
      </set>
     </set>
    </set>
   </array>
  </eigenvalues>
  <separator name="orbital magnetization" >
   <v name="MAGDIPOLOUT">      0.00000000      0.00000000      0.00000000</v>
  </separator>
  <dos>
   <i name="efermi">      5.79894145 </i>
   <total>
    <array>
     <dimension dim="1">gridpoints</dimension>
     <dimension dim="2">spin</dimension>
     <field>energy</field>
     <field>total</field>
     <field>integrated</field>
     <set>
      <set comment="spin 1">
       <r>   -55.4506     0.0000     0.0000 </r>
       <r>   -55.2231     0.0000     0.0000 </r>
       <r>   -54.9956     0.0000     0.0000 </r>
       <r>   -54.7681     0.0000     0.0000 </r>
       <r>   -54.5407     0.0000     0.0000 </r>
       <r>   -54.3132     0.0000     0.0000 </r>
       <r>   -54.0857     0.0000     0.0000 </r>
       <r>   -53.8582     0.0000     0.0000 </r>
       <r>   -53.6307     0.0000     0.0000 </r>
       <r>   -53.4032     0.0000     0.0000 </r>
       <r>   -53.1758     0.0000     0.0000 </r>
       <r>   -52.9483     0.0000     0.0000 </r>
       <r>   -52.7208     0.0000     0.0000 </r>
       <r>   -52.4933     0.0000     0.0000 </r>
       <r>   -52.2658    16.2022     4.0000 </r>
       <r>   -52.0384     0.0000     4.0000 </r>
       <r>   -51.8109     0.0000     4.0000 </r>
       <r>   -51.5834     0.0000     4.0000 </r>
       <r>   -51.3559     0.0000     4.0000 </r>
       <r>   -51.1284     0.0000     4.0000 </r>
       <r>   -50.9009     0.0000     4.0000 </r>
       <r>   -50.6735     0.0000     4.0000 </r>
       <r>   -50.4460     0.0000     4.0000 </r>
       <r>   -50.2185     0.0000     4.0000 </r>
       <r>   -49.9910     0.0000     4.0000 </r>
       <r>   -49.7635     0.0000     4.0000 </r>
       <r>   -49.5361     0.0000     4.0000 </r>
       <r>   -49.3086     0.0000     4.0000 </r>
       <r>   -49.0811     0.0000     4.0000 </r>
       <r>   -48.8536     0.0000     4.0000 </r>
       <r>   -48.6261     0.0000     4.0000 </r>
       <r>   -48.3986     0.0000     4.0000 </r>
       <r>   -48.1712     0.0000     4.0000 </r>
       <r>   -47.9437     0.0000     4.0000 </r>
       <r>   -47.7162     0.0000     4.0000 </r>
       <r>   -47.4887     0.0000     4.0000 </r>
       <r>   -47.2612     0.0000     4.0000 </r>
       <r>   -47.0337     0.0000     4.0000 </r>
       <r>   -46.8063     0.0000     4.0000 </r>
       <r>   -46.5788     0.0000     4.0000 </r>
       <r>   -46.3513     0.0000     4.0000 </r>
       <r>   -46.1238     0.0000     4.0000 </r>
       <r>   -45.8963     0.0000     4.0000 </r>
       <r>   -45.6689     0.0000     4.0000 </r>
       <r>   -45.4414     0.0000     4.0000 </r>
       <r>   -45.2139     0.0000     4.0000 </r>
       <r>   -44.9864     0.0000     4.0000 </r>
       <r>   -44.7589     0.0000     4.0000 </r>
       <r>   -44.5314     0.0000     4.0000 </r>
       <r>   -44.3040     0.0000     4.0000 </r>
       <r>   -44.0765     0.0000     4.0000 </r>
       <r>   -43.8490     0.0000     4.0000 </r>
       <r>   -43.6215     0.0000     4.0000 </r>
       <r>   -43.3940     0.0000     4.0000 </r>
       <r>   -43.1666     0.0000     4.0000 </r>
       <r>   -42.9391     0.0000     4.0000 </r>
       <r>   -42.7116     0.0000     4.0000 </r>
       <r>   -42.4841     0.0000     4.0000 </r>
       <r>   -42.2566     0.0000     4.0000 </r>
       <r>   -42.0291     0.0000     4.0000 </r>
       <r>   -41.8017     0.0000     4.0000 </r>
       <r>   -41.5742     0.0000     4.0000 </r>
       <r>   -41.3467     0.0000     4.0000 </r>
       <r>   -41.1192     0.0000     4.0000 </r>
       <r>   -40.8917     0.0000     4.0000 </r>
       <r>   -40.6643     0.0000     4.0000 </r>
       <r>   -40.4368     0.0000     4.0000 </r>
       <r>   -40.2093     0.0000     4.0000 </r>
       <r>   -39.9818     0.0000     4.0000 </r>
       <r>   -39.7543     0.0000     4.0000 </r>
       <r>   -39.5268     0.0000     4.0000 </r>
       <r>   -39.2994     0.0000     4.0000 </r>
       <r>   -39.0719     0.0000     4.0000 </r>
       <r>   -38.8444     0.0000     4.0000 </r>
       <r>   -38.6169     0.0000     4.0000 </r>
       <r>   -38.3894     0.0000     4.0000 </r>
       <r>   -38.1620     0.0000     4.0000 </r>
       <r>   -37.9345     0.0000     4.0000 </r>
       <r>   -37.7070     0.0000     4.0000 </r>
       <r>   -37.4795     0.0000     4.0000 </r>
       <r>   -37.2520     0.0000     4.0000 </r>
       <r>   -37.0245     0.0000     4.0000 </r>
       <r>   -36.7971     0.0000     4.0000 </r>
       <r>   -36.5696     0.0000     4.0000 </r>
       <r>   -36.3421     0.0000     4.0000 </r>
       <r>   -36.1146     0.0000     4.0000 </r>
       <r>   -35.8871     0.0000     4.0000 </r>
       <r>   -35.6596     0.0000     4.0000 </r>
       <r>   -35.4322     0.0000     4.0000 </r>
       <r>   -35.2047     0.0000     4.0000 </r>
       <r>   -34.9772     0.0000     4.0000 </r>
       <r>   -34.7497     0.0000     4.0000 </r>
       <r>   -34.5222     0.0000     4.0000 </r>
       <r>   -34.2948     0.0000     4.0000 </r>
       <r>   -34.0673     0.0000     4.0000 </r>
       <r>   -33.8398     0.0000     4.0000 </r>
       <r>   -33.6123     0.0000     4.0000 </r>
       <r>   -33.3848     0.0000     4.0000 </r>
       <r>   -33.1573     0.0000     4.0000 </r>
       <r>   -32.9299     0.0000     4.0000 </r>
       <r>   -32.7024     0.0000     4.0000 </r>
       <r>   -32.4749     0.0000     4.0000 </r>
       <r>   -32.2474     0.0000     4.0000 </r>
       <r>   -32.0199     0.0000     4.0000 </r>
       <r>   -31.7925     0.0000     4.0000 </r>
       <r>   -31.5650     0.0000     4.0000 </r>
       <r>   -31.3375     0.0000     4.0000 </r>
       <r>   -31.1100     0.0000     4.0000 </r>
       <r>   -30.8825     0.0000     4.0000 </r>
       <r>   -30.6550     0.0000     4.0000 </r>
       <r>   -30.4276     0.0000     4.0000 </r>
       <r>   -30.2001     0.0000     4.0000 </r>
       <r>   -29.9726     0.0000     4.0000 </r>
       <r>   -29.7451     0.0000     4.0000 </r>
       <r>   -29.5176     0.0000     4.0000 </r>
       <r>   -29.2902     0.0000     4.0000 </r>
       <r>   -29.0627     0.0000     4.0000 </r>
       <r>   -28.8352     0.3380     4.0769 </r>
       <r>   -28.6077     2.8034     6.4520 </r>
       <r>   -28.3802    18.9608    15.7275 </r>
       <r>   -28.1527     0.0000    16.0000 </r>
       <r>   -27.9253     0.0000    16.0000 </r>
       <r>   -27.6978     0.0000    16.0000 </r>
       <r>   -27.4703     0.0000    16.0000 </r>
       <r>   -27.2428     0.0000    16.0000 </r>
       <r>   -27.0153     0.0000    16.0000 </r>
       <r>   -26.7879     0.0000    16.0000 </r>
       <r>   -26.5604     0.0000    16.0000 </r>
       <r>   -26.3329     0.0000    16.0000 </r>
       <r>   -26.1054     0.0000    16.0000 </r>
       <r>   -25.8779     0.0000    16.0000 </r>
       <r>   -25.6504     0.0000    16.0000 </r>
       <r>   -25.4230     0.0000    16.0000 </r>
       <r>   -25.1955     0.0000    16.0000 </r>
       <r>   -24.9680     0.0000    16.0000 </r>
       <r>   -24.7405     0.0000    16.0000 </r>
       <r>   -24.5130     0.0000    16.0000 </r>
       <r>   -24.2856     0.0000    16.0000 </r>
       <r>   -24.0581     0.0000    16.0000 </r>
       <r>   -23.8306     0.0000    16.0000 </r>
       <r>   -23.6031     0.0000    16.0000 </r>
       <r>   -23.3756     0.0000    16.0000 </r>
       <r>   -23.1481     0.0000    16.0000 </r>
       <r>   -22.9207     0.0000    16.0000 </r>
       <r>   -22.6932     0.0000    16.0000 </r>
       <r>   -22.4657     0.0000    16.0000 </r>
       <r>   -22.2382     0.0000    16.0000 </r>
       <r>   -22.0107     0.0000    16.0000 </r>
       <r>   -21.7832     0.0000    16.0000 </r>
       <r>   -21.5558     0.0000    16.0000 </r>
       <r>   -21.3283     0.0000    16.0000 </r>
       <r>   -21.1008     0.0000    16.0000 </r>
       <r>   -20.8733     0.0000    16.0000 </r>
       <r>   -20.6458     0.0000    16.0000 </r>
       <r>   -20.4184     0.0000    16.0000 </r>
       <r>   -20.1909     0.0000    16.0000 </r>
       <r>   -19.9634     0.0000    16.0000 </r>
       <r>   -19.7359     0.0000    16.0000 </r>
       <r>   -19.5084     0.0000    16.0000 </r>
       <r>   -19.2809     0.0000    16.0000 </r>
       <r>   -19.0535     0.0000    16.0000 </r>
       <r>   -18.8260     0.0000    16.0000 </r>
       <r>   -18.5985     0.0000    16.0000 </r>
       <r>   -18.3710     0.0000    16.0000 </r>
       <r>   -18.1435     0.0000    16.0000 </r>
       <r>   -17.9161     0.0000    16.0000 </r>
       <r>   -17.6886     0.0000    16.0000 </r>
       <r>   -17.4611     0.0000    16.0000 </r>
       <r>   -17.2336     0.0000    16.0000 </r>
       <r>   -17.0061     0.0000    16.0000 </r>
       <r>   -16.7786     0.0000    16.0000 </r>
       <r>   -16.5512     0.0000    16.0000 </r>
       <r>   -16.3237     0.0000    16.0000 </r>
       <r>   -16.0962     0.0000    16.0000 </r>
       <r>   -15.8687     0.0000    16.0000 </r>
       <r>   -15.6412     0.0000    16.0000 </r>
       <r>   -15.4138     0.0000    16.0000 </r>
       <r>   -15.1863     0.0000    16.0000 </r>
       <r>   -14.9588     0.0000    16.0000 </r>
       <r>   -14.7313     0.0000    16.0000 </r>
       <r>   -14.5038     0.0000    16.0000 </r>
       <r>   -14.2763     0.0000    16.0000 </r>
       <r>   -14.0489     0.0000    16.0000 </r>
       <r>   -13.8214     0.0000    16.0000 </r>
       <r>   -13.5939     0.0000    16.0000 </r>
       <r>   -13.3664     0.0000    16.0000 </r>
       <r>   -13.1389     0.0000    16.0000 </r>
       <r>   -12.9115     0.0000    16.0000 </r>
       <r>   -12.6840     0.5525    16.2257 </r>
       <r>   -12.4565     0.1936    16.4012 </r>
       <r>   -12.2290     0.1906    16.5577 </r>
       <r>   -12.0015     1.3990    16.9897 </r>
       <r>   -11.7740     0.6186    17.4121 </r>
       <r>   -11.5466     3.2753    18.4022 </r>
       <r>   -11.3191     2.2849    19.7055 </r>
       <r>   -11.0916     2.5532    21.5808 </r>
       <r>   -10.8641     1.7825    23.7198 </r>
       <r>   -10.6366     0.0000    24.0000 </r>
       <r>   -10.4091     0.0000    24.0000 </r>
       <r>   -10.1817     0.0000    24.0000 </r>
       <r>    -9.9542     0.0000    24.0000 </r>
       <r>    -9.7267     0.0000    24.0000 </r>
       <r>    -9.4992     0.0000    24.0000 </r>
       <r>    -9.2717     0.0000    24.0000 </r>
       <r>    -9.0443     0.0000    24.0000 </r>
       <r>    -8.8168     0.0000    24.0000 </r>
       <r>    -8.5893     0.0000    24.0000 </r>
       <r>    -8.3618     0.0000    24.0000 </r>
       <r>    -8.1343     0.0000    24.0000 </r>
       <r>    -7.9068     0.0000    24.0000 </r>
       <r>    -7.6794     0.0000    24.0000 </r>
       <r>    -7.4519     0.0000    24.0000 </r>
       <r>    -7.2244     0.0000    24.0000 </r>
       <r>    -6.9969     0.0000    24.0000 </r>
       <r>    -6.7694     0.0000    24.0000 </r>
       <r>    -6.5420     0.0000    24.0000 </r>
       <r>    -6.3145     0.0000    24.0000 </r>
       <r>    -6.0870     0.0000    24.0000 </r>
       <r>    -5.8595     0.0000    24.0000 </r>
       <r>    -5.6320     0.0000    24.0000 </r>
       <r>    -5.4045     0.0000    24.0000 </r>
       <r>    -5.1771     0.0000    24.0000 </r>
       <r>    -4.9496     0.0000    24.0000 </r>
       <r>    -4.7221     0.0000    24.0000 </r>
       <r>    -4.4946     0.0000    24.0000 </r>
       <r>    -4.2671     0.0000    24.0000 </r>
       <r>    -4.0397     0.0000    24.0000 </r>
       <r>    -3.8122     0.0000    24.0000 </r>
       <r>    -3.5847     0.0000    24.0000 </r>
       <r>    -3.3572     0.0000    24.0000 </r>
       <r>    -3.1297     0.0000    24.0000 </r>
       <r>    -2.9022     0.0000    24.0000 </r>
       <r>    -2.6748     0.0000    24.0000 </r>
       <r>    -2.4473     0.0000    24.0000 </r>
       <r>    -2.2198     0.0000    24.0000 </r>
       <r>    -1.9923     0.0000    24.0000 </r>
       <r>    -1.7648     0.0000    24.0000 </r>
       <r>    -1.5374     0.0000    24.0000 </r>
       <r>    -1.3099     0.0000    24.0000 </r>
       <r>    -1.0824     0.0000    24.0000 </r>
       <r>    -0.8549     0.0000    24.0000 </r>
       <r>    -0.6274     0.0000    24.0000 </r>
       <r>    -0.3999     0.0000    24.0000 </r>
       <r>    -0.1725     0.3022    24.2116 </r>
       <r>     0.0550     1.3663    24.6680 </r>
       <r>     0.2825     0.8620    25.0104 </r>
       <r>     0.5100     1.7014    25.6870 </r>
       <r>     0.7375     1.7585    26.7286 </r>
       <r>     0.9649     1.3728    28.1123 </r>
       <r>     1.1924     1.0670    29.0713 </r>
       <r>     1.4199     1.8243    29.8721 </r>
       <r>     1.6474     1.3480    31.1066 </r>
       <r>     1.8749     1.0458    33.0808 </r>
       <r>     2.1024     1.3027    33.8249 </r>
       <r>     2.3298     0.5647    34.6285 </r>
       <r>     2.5573     0.7442    35.3550 </r>
       <r>     2.7848     5.8821    37.1381 </r>
       <r>     3.0123     1.3845    38.3435 </r>
       <r>     3.2398     1.1761    38.9961 </r>
       <r>     3.4673     2.5330    39.8762 </r>
       <r>     3.6947     2.2732    41.2885 </r>
       <r>     3.9222     1.1815    42.2259 </r>
       <r>     4.1497     3.0903    43.7601 </r>
       <r>     4.3772     1.7685    44.8309 </r>
       <r>     4.6047     0.6979    45.6159 </r>
       <r>     4.8321     1.7814    46.6195 </r>
       <r>     5.0596     1.3184    47.4713 </r>
       <r>     5.2871     0.2510    47.6142 </r>
       <r>     5.5146     0.2801    47.7780 </r>
       <r>     5.7421     0.0000    48.0000 </r>
       <r>     5.9696     0.0000    48.0000 </r>
       <r>     6.1970     0.0000    48.0000 </r>
       <r>     6.4245     0.0000    48.0000 </r>
       <r>     6.6520     0.0000    48.0000 </r>
       <r>     6.8795     0.0000    48.0000 </r>
       <r>     7.1070     0.0000    48.0000 </r>
       <r>     7.3344     0.0000    48.0000 </r>
       <r>     7.5619     0.0000    48.0000 </r>
       <r>     7.7894     0.0000    48.0000 </r>
       <r>     8.0169     2.3960    48.6165 </r>
       <r>     8.2444     1.0414    49.2369 </r>
       <r>     8.4719     1.2241    49.8928 </r>
       <r>     8.6993     2.7136    51.7887 </r>
       <r>     8.9268     1.0309    52.7917 </r>
       <r>     9.1543     1.9229    53.8517 </r>
       <r>     9.3818     4.9507    55.4833 </r>
       <r>     9.6093     0.1417    55.8751 </r>
       <r>     9.8367     0.0000    56.0000 </r>
       <r>    10.0642     0.0000    56.0000 </r>
       <r>    10.2917     0.0000    56.0000 </r>
       <r>    10.5192     0.0000    56.0000 </r>
       <r>    10.7467     0.0000    56.0000 </r>
       <r>    10.9742     0.0000    56.0000 </r>
       <r>    11.2016     0.0000    56.0000 </r>
       <r>    11.4291     0.0000    56.0000 </r>
       <r>    11.6566     0.0000    56.0000 </r>
       <r>    11.8841     0.0000    56.0000 </r>
       <r>    12.1116     0.0000    56.0000 </r>
       <r>    12.3390     0.0000    56.0000 </r>
       <r>    12.5665     0.0000    56.0000 </r>
       <r>    12.7940     0.0000    56.0000 </r>
      </set>
     </set>
    </array>
   </total>
  </dos>
 </calculation>
 <structure name="finalpos" >
  <crystal>
   <varray name="basis" >
    <v>       4.58400000       0.00000000       0.00000000 </v>
    <v>       0.00000000       4.58400000       0.00000000 </v>
    <v>       0.00000000       0.00000000       2.95300000 </v>
   </varray>
   <i name="volume">     62.05155437 </i>
   <varray name="rec_basis" >
    <v>       0.21815009       0.00000000       0.00000000 </v>
    <v>       0.00000000       0.21815009       0.00000000 </v>
    <v>       0.00000000       0.00000000       0.33863867 </v>
   </varray>
  </crystal>
  <varray name="positions" >
   <v>       0.00000000       0.00000000       0.00000000 </v>
   <v>       0.50000000       0.50000000       0.50000000 </v>
   <v>       0.19620933       0.80379067       0.50000000 </v>
   <v>       0.80379067       0.19620933       0.50000000 </v>
   <v>       0.30379067       0.30379067       0.00000000 </v>
   <v>       0.69620933       0.69620933       0.00000000 </v>
  </varray>
 </structure>
</modeling>
