TiO2                                    
   1.00000000000000     
     4.584000    0.000000    0.000000
     0.000000    4.584000    0.000000
     0.000000    0.000000    2.953000
   Ti   O 
     2     4
Direct
  0.000000  0.000000  0.000000
  0.500000  0.500000  0.500000
  0.196237  0.803763  0.500000
  0.803763  0.196237  0.500000
  0.303763  0.303763  0.000000
  0.696237  0.696237  0.000000
 
   56   56   32
 0.93124944501E+03 0.90436886559E+03 0.82807411839E+03 0.71438159385E+03 0.58013352138E+03
 0.44307386502E+03 0.31803892411E+03 0.21449264306E+03 0.13602929746E+03 0.81528697991E+02
 0.47021546319E+02 0.27371368358E+02 0.17386189634E+02 0.12447648756E+02 0.96211293908E+01
 0.79613468535E+01 0.69299655938E+01 0.61984976170E+01 0.55922082866E+01 0.50374770852E+01
 0.45170425875E+01 0.40352363168E+01 0.35992901305E+01 0.32158865360E+01 0.28922696147E+01
 0.26346691219E+01 0.24468346319E+01 0.23317282842E+01 0.22927752371E+01 0.23317282842E+01
 0.24468346319E+01 0.26346691219E+01 0.28922696147E+01 0.32158865360E+01 0.35992901305E+01
 0.40352363168E+01 0.45170425875E+01 0.50374770852E+01 0.55922082866E+01 0.61984976170E+01
 0.69299655938E+01 0.79613468535E+01 0.96211293908E+01 0.12447648756E+02 0.17386189634E+02
 0.27371368358E+02 0.47021546319E+02 0.81528697991E+02 0.13602929746E+03 0.21449264306E+03
 0.31803892411E+03 0.44307386502E+03 0.58013352138E+03 0.71438159385E+03 0.82807411839E+03
 0.90436886559E+03 0.90436886559E+03 0.87834857012E+03 0.80450704410E+03 0.69456091550E+03
 0.56478250966E+03 0.43222561228E+03 0.31112352774E+03 0.21059378175E+03 0.13419140988E+03
 0.80983729156E+02 0.47265891089E+02 0.28112768903E+02 0.18438405562E+02 0.13656008806E+02
 0.10911226739E+02 0.92934627407E+01 0.82690230658E+01 0.75110418446E+01 0.68470068451E+01
 0.62075078094E+01 0.55810551658E+01 0.49783269439E+01 0.44126514603E+01 0.38960276050E+01
 0.34400318390E+01 0.30542362527E+01 0.27446145208E+01 0.25149526420E+01 0.23680717231E+01
 0.23041563468E+01 0.23195753660E+01 0.24092220697E+01 0.25690745715E+01 0.27953893898E+01
 0.30832446455E+01 0.34278652964E+01 0.38259115717E+01 0.42740607082E+01 0.47716963056E+01
 0.53379962708E+01 0.60446908071E+01 0.70593350224E+01 0.86975304072E+01 0.11479640920E+02
 0.16300133084E+02 0.25922338948E+02 0.44812345704E+02 0.78042208312E+02 0.13068383506E+03
 0.20670429833E+03 0.30728249921E+03 0.42894911773E+03 0.56244610504E+03 0.69323633523E+03
 0.80396131712E+03 0.87821082493E+03 0.82807411839E+03 0.80450704410E+03 0.73734104158E+03
 0.63731373565E+03 0.51920980055E+03 0.39844436120E+03 0.28787496470E+03 0.19580979383E+03
 0.12562714862E+03 0.76681000276E+02 0.45739237349E+02 0.28307997543E+02 0.19598992091E+02
 0.15239444111E+02 0.12713732562E+02 0.11212134513E+02 0.10224769822E+02 0.94390582015E+01
 0.86937525948E+01 0.79305892923E+01 0.71493015874E+01 0.63713900883E+01 0.56200934775E+01
 0.49157879816E+01 0.42766533564E+01 0.37174354069E+01 0.32480257698E+01 0.28744543246E+01
 0.25998534694E+01 0.24232834683E+01 0.23392122827E+01 0.23400756795E+01 0.24191123670E+01
 0.25704025813E+01 0.27882123153E+01 0.30683444331E+01 0.34090373153E+01 0.38091937911E+01
 0.42700389447E+01 0.48097397443E+01 0.54929924946E+01 0.64715888396E+01 0.80343721009E+01
 0.10661813397E+02 0.15133956740E+02 0.23813938899E+02 0.40836969914E+02 0.70936554367E+02
 0.11884900046E+03 0.18827699267E+03 0.28033197010E+03 0.39182936946E+03 0.51425216608E+03
 0.63423073460E+03 0.73581558176E+03 0.80396131712E+03 0.71438159385E+03 0.69456091550E+03
 0.63731373565E+03 0.55184936791E+03 0.45077281335E+03 0.34718693663E+03 0.25205270761E+03
 0.17256716874E+03 0.11183461902E+03 0.69534878682E+02 0.43010924344E+02 0.28322196687E+02
 0.21108303798E+02 0.17400649379E+02 0.15248391842E+02 0.13956223663E+02 0.13049344244E+02
 0.12237532296E+02 0.11378314922E+02 0.10432598452E+02 0.94198010627E+01 0.83806764700E+01
 0.73560542265E+01 0.63807219325E+01 0.54833081309E+01 0.46855984021E+01 0.40019637671E+01
 0.34405807632E+01 0.30046141393E+01 0.26918335770E+01 0.24946821535E+01 0.24026243017E+01
 0.24049172040E+01 0.24916274934E+01 0.26541702115E+01 0.28869411967E+01 0.31879383722E+01
 0.35567297671E+01 0.39949028062E+01 0.45174894533E+01 0.51783136293E+01 0.61066621241E+01
 0.75533393386E+01 0.99409128352E+01 0.13917381973E+02 0.21268759812E+02 0.35626584797E+02
 0.61214904407E+02 0.10222651450E+03 0.16190157990E+03 0.24119045530E+03 0.33731768639E+03
 0.44292088846E+03 0.54647274154E+03 0.63423073460E+03 0.69323633523E+03 0.58013352138E+03
 0.56478250966E+03 0.51920980055E+03 0.45077281335E+03 0.36953283592E+03 0.28596659654E+03
 0.20892155713E+03 0.14435905926E+03 0.95042362500E+02 0.60936537835E+02 0.39940001767E+02
 0.28681906307E+02 0.23295128667E+02 0.20453900468E+02 0.18865444583E+02 0.17912732459E+02
 0.17155213543E+02 0.16325781916E+02 0.15305581643E+02 0.14084268527E+02 0.12714341812E+02
 0.11271151971E+02 0.98280138368E+01 0.84461896306E+01 0.71723886785E+01 0.60383694564E+01
 0.50622323539E+01 0.42515944972E+01 0.36066762975E+01 0.31217459558E+01 0.27859389717E+01
 0.25849220415E+01 0.25030083043E+01 0.25248448830E+01 0.26371864773E+01 0.28310358961E+01
 0.31022647978E+01 0.34495500099E+01 0.38736074669E+01 0.43849918744E+01 0.50243969543E+01
 0.58944187420E+01 0.72004485178E+01 0.92951263754E+01 0.12711737133E+02 0.18604495846E+02
 0.29910634219E+02 0.50246120269E+02 0.83150931293E+02 0.13130626574E+03 0.19546218407E+03
 0.27332587106E+03 0.35891625675E+03 0.44292088846E+03 0.51425216608E+03 0.56244610504E+03
 0.44307386502E+03 0.43222561228E+03 0.39844436120E+03 0.34718693663E+03 0.28596659654E+03
 0.22268034587E+03 0.16412235691E+03 0.11503592992E+03 0.77785075509E+02 0.52503430121E+02
 0.37527284348E+02 0.29995065605E+02 0.26564415512E+02 0.24872881646E+02 0.24104720126E+02
 0.23683707391E+02 0.23187086561E+02 0.22361833597E+02 0.21113700079E+02 0.19472467534E+02
 0.17543849857E+02 0.15463292352E+02 0.13362813847E+02 0.11352350798E+02 0.95114054737E+01
 0.78877133415E+01 0.65016375512E+01 0.53542560290E+01 0.44356189087E+01 0.37303394864E+01
 0.32200967458E+01 0.28844320426E+01 0.27014130711E+01 0.26491087404E+01 0.27080890977E+01
 0.28640960979E+01 0.31089785532E+01 0.34389060708E+01 0.38525796154E+01 0.43553801483E+01
 0.49742161023E+01 0.57836430540E+01 0.69407715332E+01 0.87231855460E+01 0.11557265647E+02
 0.16123597479E+02 0.24433509559E+02 0.39459775455E+02 0.64080906803E+02 0.10042795642E+03
 0.14907128654E+03 0.20822648294E+03 0.27332587106E+03 0.33731768639E+03 0.39182936946E+03
 0.42894911773E+03 0.31803892411E+03 0.31112352774E+03 0.28787496470E+03 0.25205270761E+03
 0.20892155713E+03 0.16412235691E+03 0.12264638495E+03 0.88119410354E+02 0.62446268683E+02
 0.45772208938E+02 0.36714242670E+02 0.32834113830E+02 0.31462306323E+02 0.31308636848E+02
 0.31716770678E+02 0.32108686774E+02 0.32045718941E+02 0.31268901909E+02 0.29704626556E+02
 0.27435116912E+02 0.24646325841E+02 0.21571368204E+02 0.18442227009E+02 0.15454471417E+02
 0.12746465351E+02 0.10394032806E+02 0.84191209161E+01 0.68070896300E+01 0.55252761497E+01
 0.45367677600E+01 0.38068191346E+01 0.33033510094E+01 0.29954172689E+01 0.28530251553E+01
 0.28491559702E+01 0.29625752988E+01 0.31792703054E+01 0.34912413243E+01 0.38940349869E+01
 0.43876217949E+01 0.49858525013E+01 0.57365410626E+01 0.67499883466E+01 0.82302588274E+01
 0.10498925014E+02 0.13999807571E+02 0.19765203099E+02 0.30036633019E+02 0.47095756516E+02
 0.72608061487E+02 0.10702856728E+03 0.14907128654E+03 0.19546218407E+03 0.24119045530E+03
 0.28033197010E+03 0.30728249921E+03 0.21449264306E+03 0.21059378175E+03 0.19580979383E+03
 0.17256716874E+03 0.14435905926E+03 0.11503592992E+03 0.88119410354E+02 0.66251301856E+02
 0.50830715825E+02 0.41877101524E+02 0.38160308202E+02 0.37620947065E+02 0.38647370385E+02
 0.40532329770E+02 0.42594166111E+02 0.44227680789E+02 0.44912505274E+02 0.44294997861E+02
 0.42281656770E+02 0.39045540011E+02 0.34943707406E+02 0.30375671152E+02 0.25692335467E+02
 0.21223179118E+02 0.17207777441E+02 0.13772865680E+02 0.10945152447E+02 0.86832139422E+01
 0.69137190533E+01 0.55596027518E+01 0.45543496217E+01 0.38439184798E+01 0.33827027432E+01
 0.31299453612E+01 0.30493729836E+01 0.31111454975E+01 0.32936637854E+01 0.35831255725E+01
 0.39707876377E+01 0.44512505467E+01 0.50270268718E+01 0.57225718953E+01 0.66063857355E+01
 0.78160409176E+01 0.95779200353E+01 0.12210436782E+02 0.16154270881E+02 0.22670438518E+02
 0.33525475609E+02 0.50032681122E+02 0.72608061487E+02 0.10042795642E+03 0.13130626574E+03
 0.16190157990E+03 0.18827699267E+03 0.20670429833E+03 0.13602929746E+03 0.13419140988E+03
 0.12562714862E+03 0.11183461902E+03 0.95042362500E+02 0.77785075509E+02 0.62446268683E+02
 0.50830715825E+02 0.43833005003E+02 0.41286038431E+02 0.42060706389E+02 0.44774010903E+02
 0.48769019047E+02 0.53550121413E+02 0.58415104643E+02 0.62432292008E+02 0.64689009187E+02
 0.64548326004E+02 0.61824617222E+02 0.56825801921E+02 0.50253300427E+02 0.42986784742E+02
 0.35812478131E+02 0.29182796198E+02 0.23275091649E+02 0.18277141463E+02 0.14233468445E+02
 0.11066738199E+02 0.86412666710E+01 0.68147439028E+01 0.54666353785E+01 0.45047338955E+01
 0.38590876172E+01 0.34733526063E+01 0.32996293129E+01 0.32978321384E+01 0.34372066717E+01
 0.36966038496E+01 0.40618503131E+01 0.45222806235E+01 0.50712786919E+01 0.57146302083E+01
 0.64864389084E+01 0.74685659977E+01 0.88070067394E+01 0.10716351898E+02 0.13463586722E+02
 0.17456203930E+02 0.23790014748E+02 0.33525475609E+02 0.47095756516E+02 0.64080906803E+02
 0.83150931293E+02 0.10222651450E+03 0.11884900046E+03 0.13068383506E+03 0.81528697991E+02
 0.80983729156E+02 0.76681000276E+02 0.69534878682E+02 0.60936537835E+02 0.52503430121E+02
 0.45772208938E+02 0.41877101524E+02 0.41286038431E+02 0.43684645549E+02 0.48286385374E+02
 0.54788095382E+02 0.63130802055E+02 0.72697975160E+02 0.82257224051E+02 0.90242317100E+02
 0.95150536180E+02 0.95926763273E+02 0.92228391149E+02 0.84512092898E+02 0.73924531868E+02
 0.62012816581E+02 0.50314156575E+02 0.39937953031E+02 0.31284672880E+02 0.24141854630E+02
 0.18430115370E+02 0.14036620620E+02 0.10742672157E+02 0.83116297977E+01 0.65409530113E+01
 0.52785267717E+01 0.44160536510E+01 0.38741592822E+01 0.35898961150E+01 0.35111946593E+01
 0.35967746635E+01 0.38167413494E+01 0.41503410273E+01 0.45816140465E+01 0.50970003760E+01
 0.56887547976E+01 0.63651273826E+01 0.71648839800E+01 0.81709372525E+01 0.95158741980E+01
 0.11372301645E+02 0.13924998228E+02 0.17456203930E+02 0.22670438518E+02 0.30036633019E+02
 0.39459775455E+02 0.50246120269E+02 0.61214904407E+02 0.70936554367E+02 0.78042208312E+02
 0.47021546319E+02 0.47265891089E+02 0.45739237349E+02 0.43010924344E+02 0.39940001767E+02
 0.37527284348E+02 0.36714242670E+02 0.38160308202E+02 0.42060706389E+02 0.48286385374E+02
 0.57018020325E+02 0.68816597283E+02 0.83540743497E+02 0.10001915686E+03 0.11623860231E+03
 0.12979302999E+03 0.13844006287E+03 0.14060708686E+03 0.13573939636E+03 0.12443517199E+03
 0.10834040729E+03 0.89799685217E+02 0.71309373623E+02 0.54900896586E+02 0.41648841210E+02
 0.31490395307E+02 0.23617764227E+02 0.17635806087E+02 0.13231409648E+02 0.10046031845E+02
 0.77648923650E+01 0.61508553590E+01 0.50400437082E+01 0.43202522996E+01 0.39089263436E+01
 0.37401112802E+01 0.37608829198E+01 0.39314641611E+01 0.42234642267E+01 0.46154194644E+01
 0.50885939903E+01 0.56264758018E+01 0.62198925357E+01 0.68771642304E+01 0.76354118423E+01
 0.85667466409E+01 0.97737659993E+01 0.11372301645E+02 0.13463586722E+02 0.16154270881E+02
 0.19765203099E+02 0.24433509559E+02 0.29910634219E+02 0.35626584797E+02 0.40836969914E+02
 0.44812345704E+02 0.27371368358E+02 0.28112768903E+02 0.28307997543E+02 0.28322196687E+02
 0.28681906307E+02 0.29995065605E+02 0.32834113830E+02 0.37620947065E+02 0.44774010904E+02
 0.54788095382E+02 0.68816597283E+02 0.87605581092E+02 0.11058671963E+03 0.13580876949E+03
 0.16029502781E+03 0.18067966070E+03 0.19391265162E+03 0.19786429040E+03 0.19173861795E+03
 0.17625309723E+03 0.15354987572E+03 0.12681140877E+03 0.99602929920E+02 0.75064501934E+02
 0.55182348603E+02 0.40401939327E+02 0.29746463705E+02 0.21830840576E+02 0.16078076710E+02
 0.11989700708E+02 0.91121035389E+01 0.70987380594E+01 0.57122626232E+01 0.47967597313E+01
 0.42447651393E+01 0.39744318417E+01 0.39203894686E+01 0.40322544098E+01 0.42732247851E+01
 0.46160481102E+01 0.50379821990E+01 0.55175045138E+01 0.60352766426E+01 0.65804316122E+01
 0.71597099882E+01 0.78038747287E+01 0.85667466409E+01 0.95158741980E+01 0.10716351898E+02
 0.12210436782E+02 0.13999807571E+02 0.16123597479E+02 0.18604495846E+02 0.21268759812E+02
 0.23813938899E+02 0.25922338948E+02 0.17386189634E+02 0.18438405562E+02 0.19598992091E+02
 0.21108303798E+02 0.23295128667E+02 0.26564415512E+02 0.31462306323E+02 0.38647370385E+02
 0.48769019047E+02 0.63130802055E+02 0.83540743497E+02 0.11058671963E+03 0.14308984676E+03
 0.17817009175E+03 0.21180637490E+03 0.23965677470E+03 0.25788349300E+03 0.26382420555E+03
 0.25644887443E+03 0.23657325516E+03 0.20678866029E+03 0.17106409345E+03 0.13401809642E+03
 0.99958562501E+02 0.71926623692E+02 0.51070120278E+02 0.36607961540E+02 0.26475225739E+02
 0.19189572396E+02 0.14079879077E+02 0.10537821475E+02 0.80891907911E+01 0.64083997697E+01
 0.52860943691E+01 0.45848738879E+01 0.42051929327E+01 0.40688295622E+01 0.41145720244E+01
 0.42968548849E+01 0.45824254390E+01 0.49451373247E+01 0.53609321635E+01 0.58057486047E+01
 0.62585376215E+01 0.67081979303E+01 0.71597099882E+01 0.76354118423E+01 0.81709372525E+01
 0.88070067394E+01 0.95779200353E+01 0.10498925014E+02 0.11557265647E+02 0.12711737133E+02
 0.13917381973E+02 0.15133956740E+02 0.16300133084E+02 0.12447648756E+02 0.13656008806E+02
 0.15239444111E+02 0.17400649379E+02 0.20453900468E+02 0.24872881646E+02 0.31308636848E+02
 0.40532329770E+02 0.53550121413E+02 0.72697975160E+02 0.10001915686E+03 0.13580876949E+03
 0.17817009175E+03 0.22325058487E+03 0.26601183207E+03 0.30121038325E+03 0.32430886662E+03
 0.33218762568E+03 0.32362705026E+03 0.29953832315E+03 0.26289869000E+03 0.21834718917E+03
 0.17142537248E+03 0.12752448846E+03 0.90747555103E+02 0.63045532178E+02 0.43987642886E+02
 0.31293938188E+02 0.22398561470E+02 0.16213666036E+02 0.11976707252E+02 0.90790607796E+01
 0.70992950724E+01 0.57687603016E+01 0.49168232781E+01 0.44251849542E+01 0.42028841440E+01
 0.41781913332E+01 0.42969096817E+01 0.45197893274E+01 0.48175197369E+01 0.51648234167E+01
 0.55364229994E+01 0.59075206856E+01 0.62585376215E+01 0.65804316122E+01 0.68771642304E+01
 0.71648839800E+01 0.74685659977E+01 0.78160409176E+01 0.82302588274E+01 0.87231855460E+01
 0.92951263754E+01 0.99409128352E+01 0.10661813397E+02 0.11479640920E+02 0.96211293908E+01
 0.10911226739E+02 0.12713732562E+02 0.15248391842E+02 0.18865444583E+02 0.24104720126E+02
 0.31716770678E+02 0.42594166111E+02 0.58415104643E+02 0.82257224051E+02 0.11623860231E+03
 0.16029502781E+03 0.21180637490E+03 0.26601183207E+03 0.31697161497E+03 0.35867654933E+03
 0.38601844241E+03 0.39552735248E+03 0.38586788788E+03 0.35806703221E+03 0.31542963488E+03
 0.26311836710E+03 0.20739066549E+03 0.15451573462E+03 0.10952375033E+03 0.75143942035E+02
 0.51372871651E+02 0.35910635831E+02 0.25471698986E+02 0.18252087008E+02 0.13345639152E+02
 0.10017578959E+02 0.77534466423E+01 0.62256769041E+01 0.52302608067E+01 0.46304553938E+01
 0.43233561708E+01 0.42276061775E+01 0.42810690932E+01 0.44388807519E+01 0.46687513507E+01
 0.49447257116E+01 0.52421507278E+01 0.55364229994E+01 0.58057486047E+01 0.60352766426E+01
 0.62198925357E+01 0.63651273826E+01 0.64864389084E+01 0.66063857355E+01 0.67499883466E+01
 0.69407715332E+01 0.72004485178E+01 0.75533393386E+01 0.80343721009E+01 0.86975304072E+01
 0.79613468535E+01 0.92934627407E+01 0.11212134513E+02 0.13956223663E+02 0.17912732459E+02
 0.23683707391E+02 0.32108686774E+02 0.44227680789E+02 0.62432292008E+02 0.90242317100E+02
 0.12979302999E+03 0.18067966070E+03 0.23965677470E+03 0.30121038325E+03 0.35867654933E+03
 0.40545088747E+03 0.43600432403E+03 0.44664074084E+03 0.43599742224E+03 0.40524847328E+03
 0.35797343204E+03 0.29970550562E+03 0.23717790639E+03 0.17725947697E+03 0.12566213377E+03
 0.85745076239E+02 0.57910149938E+02 0.39926559370E+02 0.28139525008E+02 0.20036044774E+02
 0.14552529164E+02 0.10851709680E+02 0.83406659689E+01 0.66408367694E+01 0.55187706296E+01
 0.48214259493E+01 0.44355933783E+01 0.42718139743E+01 0.42613286315E+01 0.43545551016E+01
 0.45166344017E+01 0.47211454238E+01 0.49447257116E+01 0.51648234167E+01 0.53609321635E+01
 0.55175045138E+01 0.56264758018E+01 0.56887547976E+01 0.57146302083E+01 0.57225718953E+01
 0.57365410626E+01 0.57836430540E+01 0.58944187420E+01 0.61066621241E+01 0.64715888396E+01
 0.70593350224E+01 0.69299655938E+01 0.82690230658E+01 0.10224769822E+02 0.13049344244E+02
 0.17155213543E+02 0.23187086561E+02 0.32045718941E+02 0.44912505274E+02 0.64689009187E+02
 0.95150536180E+02 0.13844006287E+03 0.19391265162E+03 0.25788349300E+03 0.32430886662E+03
 0.38601844241E+03 0.43600432403E+03 0.46847930792E+03 0.47965166444E+03 0.46821606445E+03
 0.43551285347E+03 0.38533305300E+03 0.32342637441E+03 0.25676138071E+03 0.19250617512E+03
 0.13674862500E+03 0.93238210991E+02 0.62667587678E+02 0.42903439261E+02 0.30142761290E+02
 0.21411964464E+02 0.15509988852E+02 0.11533288574E+02 0.88357518983E+01 0.70030668212E+01
 0.57804687574E+01 0.50027466446E+01 0.45489082091E+01 0.43234957135E+01 0.42529803492E+01
 0.42844374442E+01 0.43812008577E+01 0.45166344017E+01 0.46687513507E+01 0.48175197369E+01
 0.49451373247E+01 0.50379821990E+01 0.50885939903E+01 0.50970003760E+01 0.50712786919E+01
 0.50270268718E+01 0.49858525013E+01 0.49742161023E+01 0.50243969543E+01 0.51783136293E+01
 0.54929924946E+01 0.60446908071E+01 0.61984976170E+01 0.75110418446E+01 0.94390582015E+01
 0.12237532296E+02 0.16325781916E+02 0.22361833597E+02 0.31268901909E+02 0.44294997861E+02
 0.64548326004E+02 0.95926763273E+02 0.14060708686E+03 0.19786429040E+03 0.26382420555E+03
 0.33218762568E+03 0.39552735248E+03 0.44664074084E+03 0.47965166444E+03 0.49079688027E+03
 0.47889062700E+03 0.44542648261E+03 0.39431914481E+03 0.33137842306E+03 0.26358447819E+03
 0.19811808540E+03 0.14112429673E+03 0.96457472755E+02 0.64924966753E+02 0.44468316946E+02
 0.31282893501E+02 0.22260857763E+02 0.16150826092E+02 0.12026790442E+02 0.92221833293E+01
 0.73076825611E+01 0.60186674740E+01 0.51835296349E+01 0.46767156952E+01 0.43992282329E+01
 0.42748965975E+01 0.42491016967E+01 0.42844374442E+01 0.43545551016E+01 0.44388807519E+01
 0.45197893274E+01 0.45824254390E+01 0.46160481102E+01 0.46154194644E+01 0.45816140465E+01
 0.45222806235E+01 0.44512505467E+01 0.43876217949E+01 0.43553801483E+01 0.43849918744E+01
 0.45174894533E+01 0.48097397443E+01 0.53379962708E+01 0.55922082866E+01 0.68470068451E+01
 0.86937525948E+01 0.11378314922E+02 0.15305581643E+02 0.21113700079E+02 0.29704626556E+02
 0.42281656770E+02 0.61824617222E+02 0.92228391149E+02 0.13573939636E+03 0.19173861795E+03
 0.25644887443E+03 0.32362705026E+03 0.38586788788E+03 0.43599742224E+03 0.46821606445E+03
 0.47889062700E+03 0.46698094089E+03 0.43408294434E+03 0.38412297099E+03 0.32281424437E+03
 0.25694622706E+03 0.19345439581E+03 0.13824029144E+03 0.94975757049E+02 0.64388077977E+02
 0.44447374834E+02 0.31462827737E+02 0.22522746468E+02 0.16441568720E+02 0.12316617653E+02
 0.94963662709E+01 0.75595296265E+01 0.62445789827E+01 0.53800320268E+01 0.48392720711E+01
 0.45222769638E+01 0.43523587325E+01 0.42748965975E+01 0.42529803492E+01 0.42613286315E+01
 0.42810690932E+01 0.42969096817E+01 0.42968548849E+01 0.42732247851E+01 0.42234642267E+01
 0.41503410273E+01 0.40618503131E+01 0.39707876377E+01 0.38940349869E+01 0.38525796154E+01
 0.38736074669E+01 0.39949028062E+01 0.42700389447E+01 0.47716963056E+01 0.50374770852E+01
 0.62075078094E+01 0.79305892923E+01 0.10432598452E+02 0.14084268527E+02 0.19472467534E+02
 0.27435116912E+02 0.39045540011E+02 0.56825801921E+02 0.84512092898E+02 0.12443517199E+03
 0.17625309723E+03 0.23657325516E+03 0.29953832315E+03 0.35806703221E+03 0.40524847328E+03
 0.43551285347E+03 0.44542648261E+03 0.43408294434E+03 0.40310107055E+03 0.35629504486E+03
 0.29912966230E+03 0.23801932332E+03 0.17942405501E+03 0.12873523761E+03 0.89188768146E+02
 0.61262617211E+02 0.42919916903E+02 0.30706636097E+02 0.22209747679E+02 0.16390764849E+02
 0.12412744012E+02 0.96722307226E+01 0.77774652805E+01 0.64820501962E+01 0.56206634247E+01
 0.50688351386E+01 0.47277994847E+01 0.45222769638E+01 0.43992282329E+01 0.43234957135E+01
 0.42718139743E+01 0.42276061775E+01 0.41781913332E+01 0.41145720244E+01 0.40322544098E+01
 0.39314641611E+01 0.38167413494E+01 0.36966038496E+01 0.35831255725E+01 0.34912413243E+01
 0.34389060708E+01 0.34495500099E+01 0.35567297671E+01 0.38091937911E+01 0.42740607082E+01
 0.45170425875E+01 0.55810551658E+01 0.71493015874E+01 0.94198010627E+01 0.12714341812E+02
 0.17543849857E+02 0.24646325841E+02 0.34943707406E+02 0.50253300427E+02 0.73924531868E+02
 0.10834040729E+03 0.15354987572E+03 0.20678866029E+03 0.26289869000E+03 0.31542963488E+03
 0.35797343204E+03 0.38533305300E+03 0.39431914481E+03 0.38412297099E+03 0.35629504486E+03
 0.31441414988E+03 0.26355066926E+03 0.20956987054E+03 0.15824993528E+03 0.11425154519E+03
 0.80185308279E+02 0.56173501286E+02 0.40176338340E+02 0.29153887137E+02 0.21404828386E+02
 0.16050480889E+02 0.12353858736E+02 0.97853935615E+01 0.79991921935E+01 0.67728641531E+01
 0.59516162137E+01 0.54155144533E+01 0.50688351386E+01 0.48392720711E+01 0.46767156952E+01
 0.45489082091E+01 0.44355933783E+01 0.43233561708E+01 0.42028841440E+01 0.40688295622E+01
 0.39203894686E+01 0.37608829198E+01 0.35967746635E+01 0.34372066717E+01 0.32936637854E+01
 0.31792703054E+01 0.31089785532E+01 0.31022647978E+01 0.31879383722E+01 0.34090373153E+01
 0.38259115717E+01 0.40352363168E+01 0.49783269439E+01 0.63713900883E+01 0.83806764700E+01
 0.11271151971E+02 0.15463292352E+02 0.21571368204E+02 0.30375671152E+02 0.42986784742E+02
 0.62012816581E+02 0.89799685217E+02 0.12681140877E+03 0.17106409345E+03 0.21834718917E+03
 0.26311836710E+03 0.29970550562E+03 0.32342637441E+03 0.33137842306E+03 0.32281424437E+03
 0.29912966230E+03 0.26355066926E+03 0.22061014067E+03 0.17545745833E+03 0.13301211858E+03
 0.97047477167E+02 0.69448719125E+02 0.49961846057E+02 0.36600771785E+02 0.27031165755E+02
 0.20247503675E+02 0.15511256182E+02 0.12207555614E+02 0.98959251102E+01 0.82851004506E+01
 0.71809500479E+01 0.64411799185E+01 0.59516162137E+01 0.56206634247E+01 0.53800320268E+01
 0.51835296349E+01 0.50027466446E+01 0.48214259493E+01 0.46304553938E+01 0.44251849542E+01
 0.42051929327E+01 0.39744318417E+01 0.37401112802E+01 0.35111946593E+01 0.32978321384E+01
 0.31111454975E+01 0.29625752988E+01 0.28640960979E+01 0.28310358961E+01 0.28869411967E+01
 0.30683444331E+01 0.34278652964E+01 0.35992901305E+01 0.44126514603E+01 0.56200934775E+01
 0.73560542265E+01 0.98280138368E+01 0.13362813847E+02 0.18442227009E+02 0.25692335467E+02
 0.35812478131E+02 0.50314156575E+02 0.71309373623E+02 0.99602929920E+02 0.13401809642E+03
 0.17142537248E+03 0.20739066549E+03 0.23717790639E+03 0.25676138071E+03 0.26358447819E+03
 0.25694622706E+03 0.23801932332E+03 0.20956987054E+03 0.17545745833E+03 0.13996895687E+03
 0.10703949519E+03 0.79485027150E+02 0.58468479322E+02 0.43426030703E+02 0.32578327655E+02
 0.24609237346E+02 0.18910966994E+02 0.14891836453E+02 0.12066916368E+02 0.10088079708E+02
 0.87191445028E+01 0.77935518767E+01 0.71809500479E+01 0.67728641531E+01 0.64820501962E+01
 0.62445789827E+01 0.60186674740E+01 0.57804687574E+01 0.55187706296E+01 0.52302608067E+01
 0.49168232781E+01 0.45848738879E+01 0.42447651393E+01 0.39089263436E+01 0.35898961150E+01
 0.32996293129E+01 0.30493729836E+01 0.28491559702E+01 0.27080890977E+01 0.26371864773E+01
 0.26541702115E+01 0.27882123153E+01 0.30832446455E+01 0.32158865360E+01 0.38960276050E+01
 0.49157879816E+01 0.63807219325E+01 0.84461896306E+01 0.11352350798E+02 0.15454471417E+02
 0.21223179118E+02 0.29182796198E+02 0.39937953031E+02 0.54900896586E+02 0.75064501934E+02
 0.99958562501E+02 0.12752448846E+03 0.15451573462E+03 0.17725947697E+03 0.19250617512E+03
 0.19811808540E+03 0.19345439581E+03 0.17942405501E+03 0.15824993528E+03 0.13301211858E+03
 0.10703949519E+03 0.83238501551E+02 0.63499877787E+02 0.48364939003E+02 0.37091757761E+02
 0.28513027572E+02 0.22157532464E+02 0.17576605915E+02 0.14325537745E+02 0.12043012685E+02
 0.10465637182E+02 0.94056019460E+01 0.87191445028E+01 0.82851004506E+01 0.79991921935E+01
 0.77774652805E+01 0.75595296265E+01 0.73076825611E+01 0.70030668212E+01 0.66408367694E+01
 0.62256769041E+01 0.57687603016E+01 0.52860943691E+01 0.47967597313E+01 0.43202522996E+01
 0.38741592822E+01 0.34733526063E+01 0.31299453612E+01 0.28530251553E+01 0.26491087404E+01
 0.25248448830E+01 0.24916274934E+01 0.25704025813E+01 0.27953893898E+01 0.28922696147E+01
 0.34400318390E+01 0.42766533564E+01 0.54833081309E+01 0.71723886785E+01 0.95114054737E+01
 0.12746465351E+02 0.17207777441E+02 0.23275091649E+02 0.31284672880E+02 0.41648841210E+02
 0.55182348603E+02 0.71926623692E+02 0.90747555103E+02 0.10952375033E+03 0.12566213377E+03
 0.13674862500E+03 0.14112429673E+03 0.13824029144E+03 0.12873523761E+03 0.11425154519E+03
 0.97047477167E+02 0.79485027150E+02 0.63499877787E+02 0.50187493068E+02 0.39637320918E+02
 0.31244283740E+02 0.24744345111E+02 0.19907230038E+02 0.16411764948E+02 0.13946128110E+02
 0.12255229522E+02 0.11145265804E+02 0.10465637182E+02 0.10088079708E+02 0.98959251102E+01
 0.97853935615E+01 0.96722307226E+01 0.94963662709E+01 0.92221833293E+01 0.88357518983E+01
 0.83406659689E+01 0.77534466423E+01 0.70992950724E+01 0.64083997697E+01 0.57122626232E+01
 0.50400437082E+01 0.44160536510E+01 0.38590876172E+01 0.33827027432E+01 0.29954172689E+01
 0.27014130711E+01 0.25030083043E+01 0.24049172040E+01 0.24191123670E+01 0.25690745715E+01
 0.26346691219E+01 0.30542362527E+01 0.37174354069E+01 0.46855984021E+01 0.60383694564E+01
 0.78877133415E+01 0.10394032806E+02 0.13772865680E+02 0.18277141463E+02 0.24141854630E+02
 0.31490395307E+02 0.40401939327E+02 0.51070120278E+02 0.63045532178E+02 0.75143942035E+02
 0.85745076239E+02 0.93238210991E+02 0.96457472755E+02 0.94975757049E+02 0.89188768146E+02
 0.80185308279E+02 0.69448719125E+02 0.58468479322E+02 0.48364939003E+02 0.39637320918E+02
 0.32228166487E+02 0.26186848319E+02 0.21504942405E+02 0.18030357533E+02 0.15555435251E+02
 0.13877541678E+02 0.12824834164E+02 0.12255229522E+02 0.12043012685E+02 0.12066916368E+02
 0.12207555614E+02 0.12353858736E+02 0.12412744012E+02 0.12316617653E+02 0.12026790442E+02
 0.11533288574E+02 0.10851709680E+02 0.10017578959E+02 0.90790607796E+01 0.80891907911E+01
 0.70987380594E+01 0.61508553590E+01 0.52785267717E+01 0.45047338955E+01 0.38439184798E+01
 0.33033510094E+01 0.28844320426E+01 0.25849220415E+01 0.24026243017E+01 0.23400756795E+01
 0.24092220697E+01 0.24468346319E+01 0.27446145208E+01 0.32480257698E+01 0.40019637671E+01
 0.50622323539E+01 0.65016375512E+01 0.84191209161E+01 0.10945152447E+02 0.14233468445E+02
 0.18430115370E+02 0.23617764227E+02 0.29746463705E+02 0.36607961540E+02 0.43987642886E+02
 0.51372871651E+02 0.57910149938E+02 0.62667587678E+02 0.64924966753E+02 0.64388077977E+02
 0.61262617211E+02 0.56173501286E+02 0.49961846057E+02 0.43426030703E+02 0.37091757761E+02
 0.31244283740E+02 0.26186848319E+02 0.22074748155E+02 0.18917894856E+02 0.16636644665E+02
 0.15114399380E+02 0.14231588816E+02 0.13877541678E+02 0.13946128110E+02 0.14325537745E+02
 0.14891836453E+02 0.15511256182E+02 0.16050480889E+02 0.16390764849E+02 0.16441568720E+02
 0.16150826092E+02 0.15509988852E+02 0.14552529164E+02 0.13345639152E+02 0.11976707252E+02
 0.10537821475E+02 0.91121035389E+01 0.77648923650E+01 0.65409530113E+01 0.54666353785E+01
 0.45543496217E+01 0.38068191346E+01 0.32200967458E+01 0.27859389717E+01 0.24946821535E+01
 0.23392122827E+01 0.23195753660E+01 0.23317282842E+01 0.25149526420E+01 0.28744543246E+01
 0.34405807632E+01 0.42515944972E+01 0.53542560290E+01 0.68070896300E+01 0.86832139422E+01
 0.11066738199E+02 0.14036620620E+02 0.17635806087E+02 0.21830840576E+02 0.26475225739E+02
 0.31293938188E+02 0.35910635831E+02 0.39926559370E+02 0.42903439261E+02 0.44468316946E+02
 0.44447374834E+02 0.42919916903E+02 0.40176338340E+02 0.36600771785E+02 0.32578327655E+02
 0.28513027572E+02 0.24744345111E+02 0.21504942405E+02 0.18917894856E+02 0.17018098017E+02
 0.15784451481E+02 0.15169088468E+02 0.15114399380E+02 0.15555435251E+02 0.16411764948E+02
 0.17576605915E+02 0.18910966994E+02 0.20247503675E+02 0.21404828386E+02 0.22209747679E+02
 0.22522746468E+02 0.22260857763E+02 0.21411964464E+02 0.20036044774E+02 0.18252087008E+02
 0.16213666036E+02 0.14079879077E+02 0.11989700708E+02 0.10046031845E+02 0.83116297977E+01
 0.68147439028E+01 0.55596027518E+01 0.45367677600E+01 0.37303394864E+01 0.31217459558E+01
 0.26918335770E+01 0.24232834683E+01 0.23041563468E+01 0.22927752371E+01 0.23680717231E+01
 0.25998534694E+01 0.30046141393E+01 0.36066762975E+01 0.44356189087E+01 0.55252761497E+01
 0.69137190533E+01 0.86412666710E+01 0.10742672157E+02 0.13231409648E+02 0.16078076710E+02
 0.19189572396E+02 0.22398561470E+02 0.25471698986E+02 0.28139525008E+02 0.30142761290E+02
 0.31282893501E+02 0.31462827737E+02 0.30706636097E+02 0.29153887137E+02 0.27031165755E+02
 0.24609237346E+02 0.22157532464E+02 0.19907230038E+02 0.18030357533E+02 0.16636644665E+02
 0.15784451481E+02 0.15498333103E+02 0.15784451481E+02 0.16636644665E+02 0.18030357533E+02
 0.19907230038E+02 0.22157532464E+02 0.24609237346E+02 0.27031165755E+02 0.29153887137E+02
 0.30706636097E+02 0.31462827737E+02 0.31282893501E+02 0.30142761290E+02 0.28139525008E+02
 0.25471698986E+02 0.22398561470E+02 0.19189572396E+02 0.16078076710E+02 0.13231409648E+02
 0.10742672157E+02 0.86412666710E+01 0.69137190533E+01 0.55252761497E+01 0.44356189087E+01
 0.36066762975E+01 0.30046141393E+01 0.25998534694E+01 0.23680717231E+01 0.23317282842E+01