       N       E                     dE             d eps       ncg     rms          rms(c)
DAV:   1    -0.450840123192E+03   -0.45084E+03   -0.40529E+04  2436   0.263E+03
DAV:   2    -0.987890721737E+03   -0.53705E+03   -0.50786E+03  2240   0.738E+02
DAV:   3    -0.110108136270E+04   -0.11319E+03   -0.11101E+03  4136   0.192E+02
DAV:   4    -0.111262232502E+04   -0.11541E+02   -0.11345E+02  3280   0.685E+01
DAV:   5    -0.111366095068E+04   -0.10386E+01   -0.99842E+00  3460   0.168E+01    0.399E+02
DAV:   6    -0.528278199185E+03    0.58538E+03   -0.61675E+03  3456   0.506E+02    0.273E+02
DAV:   7    -0.199179967340E+03    0.32910E+03   -0.35031E+02  2916   0.338E+02    0.329E+02
DAV:   8    -0.211439032937E+03   -0.12259E+02   -0.57055E+01  2512   0.697E+01    0.353E+02
DAV:   9    -0.660815139118E+02    0.14536E+03   -0.62472E+02  3160   0.265E+02    0.378E+02
DAV:  10    -0.994477798389E+02   -0.33366E+02   -0.28130E+02  2608   0.134E+02    0.247E+02
DAV:  11    -0.749472586260E+02    0.24501E+02   -0.21572E+01  2664   0.306E+01    0.231E+02
DAV:  12    -0.733986785787E+02    0.15486E+01   -0.42945E+00  3332   0.207E+01    0.217E+02
DAV:  13    -0.591104380811E+02    0.14288E+02   -0.22184E+01  2768   0.315E+01    0.211E+02
DAV:  14    -0.552953759463E+02    0.38151E+01   -0.38634E+00  2976   0.137E+01    0.202E+02
DAV:  15    -0.560304237549E+02   -0.73505E+00   -0.87727E-01  2712   0.816E+00    0.176E+02
DAV:  16    -0.562271205231E+02   -0.19670E+00   -0.96402E-01  2984   0.909E+00    0.158E+02
DAV:  17    -0.543791130532E+02    0.18480E+01   -0.79298E-01  2552   0.879E+00    0.137E+02
DAV:  18    -0.523936944412E+02    0.19854E+01   -0.10715E+00  2428   0.954E+00    0.110E+02
DAV:  19    -0.497922029647E+02    0.26015E+01   -0.35816E+00  2684   0.149E+01    0.675E+01
DAV:  20    -0.491473495134E+02    0.64485E+00   -0.65890E-01  2908   0.661E+00    0.439E+01
DAV:  21    -0.487864970510E+02    0.36085E+00   -0.36756E-01  2524   0.508E+00    0.227E+01
DAV:  22    -0.485083552682E+02    0.27814E+00   -0.56151E-01  3092   0.485E+00    0.108E+01
DAV:  23    -0.484164758610E+02    0.91879E-01   -0.28598E-01  2872   0.336E+00    0.409E+00
DAV:  24    -0.484045788895E+02    0.11897E-01   -0.47214E-02  2880   0.140E+00    0.221E+00
DAV:  25    -0.484038543231E+02    0.72457E-03   -0.33562E-03  2940   0.412E-01    0.136E+00
DAV:  26    -0.484038588556E+02   -0.45325E-05   -0.35059E-04  2616   0.135E-01    0.479E-01
DAV:  27    -0.484038583601E+02    0.49546E-06   -0.58805E-05  2348   0.688E-02
   1 F= -.48403858E+02 E0= -.48403858E+02  d E =-.170585E-96
