 vasp.6.2.0 18Jan21 (build Oct 14 2021 17:49:53) complex                        
  
 executed on             LinuxIFC date 2022.04.02  10:43:29
 running on    1 total cores
 distrk:  each k-point on    1 cores,    1 groups
 distr:  one band on NCORE=   1 cores,    1 groups


--------------------------------------------------------------------------------------------------------


 INCAR:
   SYSTEM = TiO2
   ISTART = 1
   ICHARG = 11
   ISMEAR = 0
   SIGMA = 0.01
   LOUT = 10
   ENCUT = 460
   EDIFF = 0.1E-04

 POTCAR:    PAW_PBE Ti_sv 26Sep2005               
 POTCAR:   PAW_PBE O_s 07Sep2000                  
 POTCAR:    PAW_PBE Ti_sv 26Sep2005               
   SHA256 =  4d747badb5a5ea28d858fbac70885b3f8929d6fd9e5b0dbe1ecb9878dc164da1 Ti_sv/POTCAR          
   COPYR  = (c) Copyright 26Sep2005 Georg Kresse                                                    
   COPYR  = This file is part of the software VASP. Any use, copying, and all other rights are regul
   COPYR  = If you do not have a valid VASP license, you may not use, copy or distribute this file. 
   VRHFIN =Ti: 3p4s3d                                                                               
   LEXCH  = PE                                                                                      
   EATOM  =  1588.0892 eV,  116.7213 Ry                                                             
                                                                                                    
   TITEL  = PAW_PBE Ti_sv 26Sep2005                                                                 
   LULTRA =        F    use ultrasoft PP ?                                                          
   IUNSCR =        1    unscreen: 0-lin 1-nonlin 2-no                                               
   RPACOR =    2.000    partial core radius                                                         
   POMASS =   47.880; ZVAL   =   12.000    mass and valenz                                          
   RCORE  =    2.300    outmost cutoff radius                                                       
   RWIGS  =    2.300; RWIGS  =    1.217    wigner-seitz radius (au A)                               
   ENMAX  =  274.610; ENMIN  =  205.957 eV                                                          
   ICORE  =        3    local potential                                                             
   LCOR   =        T    correct aug charges                                                         
   LPAW   =        T    paw PP                                                                      
   EAUG   =  482.848                                                                                
   RMAX   =    2.348    core radius for proj-oper                                                   
   RAUG   =    1.300    factor for augmentation sphere                                              
   RDEP   =    2.381    radius for radial grids                                                     
   RDEPT  =    1.930    core radius for aug-charge                                                  
                                                                                                    
   Atomic configuration                                                                             
    8 entries                                                                                       
     n  l   j            E        occ.                                                              
     1  0  0.50     -4865.3608   2.0000                                                             
     2  0  0.50      -533.1368   2.0000                                                             
     2  1  1.50      -440.5031   6.0000                                                             
     3  0  0.50       -59.3186   2.0000                                                             
     4  0  0.50        -3.7291   1.0000                                                             
     3  1  1.50       -35.7012   6.0000                                                             
     3  2  2.50        -1.9157   3.0000                                                             
     4  3  2.50        -1.3606   0.0000                                                             
   Description                                                                                      
     l       E           TYP  RCUT    TYP  RCUT                                                     
     0    -59.3185931     23  1.800                                                                 
     0     -3.7290822     23  2.300                                                                 
     1    -35.7012045     23  2.300                                                                 
     1     -1.3605826     23  2.300                                                                 
     2     -1.9156920     23  2.300                                                                 
     2     -0.0236318     23  2.300                                                                 
     3     -1.3605826     23  2.300                                                                 
  local pseudopotential read in
  partial core-charges read in
  partial kinetic energy density read in
  atomic valenz-charges read in
  non local Contribution for L=           0  read in
    real space projection operators read in
  non local Contribution for L=           0  read in
    real space projection operators read in
  non local Contribution for L=           1  read in
    real space projection operators read in
  non local Contribution for L=           1  read in
    real space projection operators read in
  non local Contribution for L=           2  read in
    real space projection operators read in
  non local Contribution for L=           2  read in
    real space projection operators read in
    PAW grid and wavefunctions read in
 
   number of l-projection  operators is LMAX  =           6
   number of lm-projection operators is LMMAX =          18
 
 POTCAR:   PAW_PBE O_s 07Sep2000                  
   SHA256 =  e7f4e16ee7752e7dead62f07b2b95b8f91122148deae9dd89b96c576b0e91599 O_s/POTCAR            
   COPYR  = (c) Copyright 07Sep2000 Georg Kresse                                                    
   COPYR  = This file is part of the software VASP. Any use, copying, and all other rights are regul
   COPYR  = If you do not have a valid VASP license, you may not use, copy or distribute this file. 
   VRHFIN =O: s2p4                                                                                  
   LEXCH  = PE                                                                                      
   EATOM  =   432.3788 eV,   31.7789 Ry                                                             
                                                                                                    
   TITEL  = PAW_PBE O_s 07Sep2000                                                                   
   LULTRA =        F    use ultrasoft PP ?                                                          
   IUNSCR =        0    unscreen: 0-lin 1-nonlin 2-no                                               
   RPACOR =    0.000    partial core radius                                                         
   POMASS =   16.000; ZVAL   =    6.000    mass and valenz                                          
   RCORE  =    1.850    outmost cutoff radius                                                       
   RWIGS  =    1.700; RWIGS  =    0.900    wigner-seitz radius (au A)                               
   ENMAX  =  282.853; ENMIN  =  212.140 eV                                                          
   RCLOC  =    0.804    cutoff for local pot                                                        
   LCOR   =        T    correct aug charges                                                         
   LPAW   =        T    paw PP                                                                      
   EAUG   =  412.352                                                                                
   RMAX   =    1.897    core radius for proj-oper                                                   
   RAUG   =    1.300    factor for augmentation sphere                                              
   RDEP   =    1.878    radius for radial grids                                                     
   RDEPT  =    1.572    core radius for aug-charge                                                  
                                                                                                    
   Atomic configuration                                                                             
    4 entries                                                                                       
     n  l   j            E        occ.                                                              
     1  0  0.50      -514.6923   2.0000                                                             
     2  0  0.50       -23.9615   2.0000                                                             
     2  1  0.50        -9.0305   4.0000                                                             
     3  2  1.50        -1.3606   0.0000                                                             
   Description                                                                                      
     l       E           TYP  RCUT    TYP  RCUT                                                     
     0    -23.9615315     23  1.500                                                                 
     0    -25.3221141     23  1.500                                                                 
     1     -9.0304908     23  1.850                                                                 
     1     -7.3935399     23  1.850                                                                 
  local pseudopotential read in
  atomic valenz-charges read in
  non local Contribution for L=           0  read in
    real space projection operators read in
  non local Contribution for L=           0  read in
    real space projection operators read in
  non local Contribution for L=           1  read in
    real space projection operators read in
  non local Contribution for L=           1  read in
    real space projection operators read in
    PAW grid and wavefunctions read in
 
   number of l-projection  operators is LMAX  =           4
   number of lm-projection operators is LMMAX =           8
 
  PAW_PBE Ti_sv 26Sep2005               :
 energy of atom  1       EATOM=-1588.0892
 kinetic energy error for atom=    0.0062 (will be added to EATOM!!)
 PAW_PBE O_s 07Sep2000                  :
 energy of atom  2       EATOM= -432.3788
 kinetic energy error for atom=    0.0105 (will be added to EATOM!!)
 
 
 POSCAR: Rutile TiO2
  positions in direct lattice
  velocities in cartesian coordinates
 exchange correlation table for  LEXCH =        8
   RHO(1)=    0.500       N(1)  =     2000
   RHO(2)=  100.500       N(2)  =     4000
 


--------------------------------------------------------------------------------------------------------


 ion  position               nearest neighbor table
   1  0.000  0.000  0.000-   3 1.95   4 1.95   3 1.95   4 1.95   5 1.97   6 1.97
   2  0.500  0.500  0.500-   5 1.95   6 1.95   5 1.95   6 1.95   3 1.97   4 1.97
   3  0.196  0.804  0.500-   1 1.95   1 1.95   2 1.97
   4  0.804  0.196  0.500-   1 1.95   1 1.95   2 1.97
   5  0.304  0.304  0.000-   2 1.95   2 1.95   1 1.97
   6  0.696  0.696  0.000-   2 1.95   2 1.95   1 1.97
 
  LATTYP: Found a simple tetragonal cell.
 ALAT       =     4.5840000000
 C/A-ratio  =     0.6441972077
  
  Lattice vectors:
  
 A1 = (   4.5840000000,   0.0000000000,   0.0000000000)
 A2 = (   0.0000000000,   4.5840000000,   0.0000000000)
 A3 = (   0.0000000000,   0.0000000000,   2.9530000000)


Analysis of symmetry for initial positions (statically):
=====================================================================
 Subroutine PRICEL returns:
 Original cell was already a primitive cell.
 

 Routine SETGRP: Setting up the symmetry group for a 
 simple tetragonal supercell.


 Subroutine GETGRP returns: Found 16 space group operations
 (whereof  8 operations were pure point group operations)
 out of a pool of 16 trial point group operations.


The static configuration has the point symmetry D_2h.
 The point group associated with its full space group is D_4h.


Analysis of symmetry for dynamics (positions and initial velocities):
=====================================================================
 Subroutine PRICEL returns:
 Original cell was already a primitive cell.
 

 Routine SETGRP: Setting up the symmetry group for a 
 simple tetragonal supercell.


 Subroutine GETGRP returns: Found 16 space group operations
 (whereof  8 operations were pure point group operations)
 out of a pool of 16 trial point group operations.


The dynamic configuration has the point symmetry D_2h.
 The point group associated with its full space group is D_4h.


 Subroutine INISYM returns: Found 16 space group operations
 (whereof  8 operations are pure point group operations),
 and found     1 'primitive' translations


----------------------------------------------------------------------------------------

                                     Primitive cell                                     

  volume of cell :      62.0516

  direct lattice vectors                    reciprocal lattice vectors
     4.584000000  0.000000000  0.000000000     0.218150087  0.000000000  0.000000000
     0.000000000  4.584000000  0.000000000     0.000000000  0.218150087  0.000000000
     0.000000000  0.000000000  2.953000000     0.000000000  0.000000000  0.338638673

  length of vectors
     4.584000000  4.584000000  2.953000000     0.218150087  0.218150087  0.338638673

  position of ions in fractional coordinates (direct lattice)
     0.000000000  0.000000000  0.000000000
     0.500000000  0.500000000  0.500000000
     0.196209329  0.803790671  0.500000000
     0.803790671  0.196209329  0.500000000
     0.303790671  0.303790671  0.000000000
     0.696209329  0.696209329  0.000000000

  ion indices of the primitive-cell ions
   primitive index   ion index
                 1           1
                 2           2
                 3           3
                 4           4
                 5           5
                 6           6

----------------------------------------------------------------------------------------

 
 
 KPOINTS: K-Path Generated by VASPKIT.            

Interpolating k-points between supplied coordinates.

 Line segments in fractional coordinates (reciprocal lattice):
    0.000000  0.000000  0.000000  ...  0.000000  0.500000  0.000000
    0.000000  0.500000  0.000000  ...  0.500000  0.500000  0.000000
    0.500000  0.500000  0.000000  ...  0.000000  0.000000  0.000000
    0.000000  0.000000  0.000000  ...  0.000000  0.000000  0.500000
    0.000000  0.000000  0.500000  ...  0.000000  0.500000  0.500000
    0.000000  0.500000  0.500000  ...  0.500000  0.500000  0.500000
    0.500000  0.500000  0.500000  ...  0.000000  0.000000  0.500000
    0.000000  0.500000  0.000000  ...  0.000000  0.500000  0.500000
    0.500000  0.500000  0.000000  ...  0.500000  0.500000  0.500000

 Generated    20 points on each line segment, for a total of    180 k-points:

 Following reciprocal coordinates:
            Coordinates               Weight
  0.000000  0.000000  0.000000      0.005556
  0.000000  0.026316  0.000000      0.005556
  0.000000  0.052632  0.000000      0.005556
  0.000000  0.078947  0.000000      0.005556
  0.000000  0.105263  0.000000      0.005556
  0.000000  0.131579  0.000000      0.005556
  0.000000  0.157895  0.000000      0.005556
  0.000000  0.184211  0.000000      0.005556
  0.000000  0.210526  0.000000      0.005556
  0.000000  0.236842  0.000000      0.005556
  0.000000  0.263158  0.000000      0.005556
  0.000000  0.289474  0.000000      0.005556
  0.000000  0.315789  0.000000      0.005556
  0.000000  0.342105  0.000000      0.005556
  0.000000  0.368421  0.000000      0.005556
  0.000000  0.394737  0.000000      0.005556
  0.000000  0.421053  0.000000      0.005556
  0.000000  0.447368  0.000000      0.005556
  0.000000  0.473684  0.000000      0.005556
  0.000000  0.500000  0.000000      0.005556
  0.000000  0.500000  0.000000      0.005556
  0.026316  0.500000  0.000000      0.005556
  0.052632  0.500000  0.000000      0.005556
  0.078947  0.500000  0.000000      0.005556
  0.105263  0.500000  0.000000      0.005556
  0.131579  0.500000  0.000000      0.005556
  0.157895  0.500000  0.000000      0.005556
  0.184211  0.500000  0.000000      0.005556
  0.210526  0.500000  0.000000      0.005556
  0.236842  0.500000  0.000000      0.005556
  0.263158  0.500000  0.000000      0.005556
  0.289474  0.500000  0.000000      0.005556
  0.315789  0.500000  0.000000      0.005556
  0.342105  0.500000  0.000000      0.005556
  0.368421  0.500000  0.000000      0.005556
  0.394737  0.500000  0.000000      0.005556
  0.421053  0.500000  0.000000      0.005556
  0.447368  0.500000  0.000000      0.005556
  0.473684  0.500000  0.000000      0.005556
  0.500000  0.500000  0.000000      0.005556
  0.500000  0.500000  0.000000      0.005556
  0.473684  0.473684  0.000000      0.005556
  0.447368  0.447368  0.000000      0.005556
  0.421053  0.421053  0.000000      0.005556
  0.394737  0.394737  0.000000      0.005556
  0.368421  0.368421  0.000000      0.005556
  0.342105  0.342105  0.000000      0.005556
  0.315789  0.315789  0.000000      0.005556
  0.289474  0.289474  0.000000      0.005556
  0.263158  0.263158  0.000000      0.005556
  0.236842  0.236842  0.000000      0.005556
  0.210526  0.210526  0.000000      0.005556
  0.184211  0.184211  0.000000      0.005556
  0.157895  0.157895  0.000000      0.005556
  0.131579  0.131579  0.000000      0.005556
  0.105263  0.105263  0.000000      0.005556
  0.078947  0.078947  0.000000      0.005556
  0.052632  0.052632  0.000000      0.005556
  0.026316  0.026316  0.000000      0.005556
  0.000000  0.000000  0.000000      0.005556
  0.000000  0.000000  0.000000      0.005556
  0.000000  0.000000  0.026316      0.005556
  0.000000  0.000000  0.052632      0.005556
  0.000000  0.000000  0.078947      0.005556
  0.000000  0.000000  0.105263      0.005556
  0.000000  0.000000  0.131579      0.005556
  0.000000  0.000000  0.157895      0.005556
  0.000000  0.000000  0.184211      0.005556
  0.000000  0.000000  0.210526      0.005556
  0.000000  0.000000  0.236842      0.005556
  0.000000  0.000000  0.263158      0.005556
  0.000000  0.000000  0.289474      0.005556
  0.000000  0.000000  0.315789      0.005556
  0.000000  0.000000  0.342105      0.005556
  0.000000  0.000000  0.368421      0.005556
  0.000000  0.000000  0.394737      0.005556
  0.000000  0.000000  0.421053      0.005556
  0.000000  0.000000  0.447368      0.005556
  0.000000  0.000000  0.473684      0.005556
  0.000000  0.000000  0.500000      0.005556
  0.000000  0.000000  0.500000      0.005556
  0.000000  0.026316  0.500000      0.005556
  0.000000  0.052632  0.500000      0.005556
  0.000000  0.078947  0.500000      0.005556
  0.000000  0.105263  0.500000      0.005556
  0.000000  0.131579  0.500000      0.005556
  0.000000  0.157895  0.500000      0.005556
  0.000000  0.184211  0.500000      0.005556
  0.000000  0.210526  0.500000      0.005556
  0.000000  0.236842  0.500000      0.005556
  0.000000  0.263158  0.500000      0.005556
  0.000000  0.289474  0.500000      0.005556
  0.000000  0.315789  0.500000      0.005556
  0.000000  0.342105  0.500000      0.005556
  0.000000  0.368421  0.500000      0.005556
  0.000000  0.394737  0.500000      0.005556
  0.000000  0.421053  0.500000      0.005556
  0.000000  0.447368  0.500000      0.005556
  0.000000  0.473684  0.500000      0.005556
  0.000000  0.500000  0.500000      0.005556
  0.000000  0.500000  0.500000      0.005556
  0.026316  0.500000  0.500000      0.005556
  0.052632  0.500000  0.500000      0.005556
  0.078947  0.500000  0.500000      0.005556
  0.105263  0.500000  0.500000      0.005556
  0.131579  0.500000  0.500000      0.005556
  0.157895  0.500000  0.500000      0.005556
  0.184211  0.500000  0.500000      0.005556
  0.210526  0.500000  0.500000      0.005556
  0.236842  0.500000  0.500000      0.005556
  0.263158  0.500000  0.500000      0.005556
  0.289474  0.500000  0.500000      0.005556
  0.315789  0.500000  0.500000      0.005556
  0.342105  0.500000  0.500000      0.005556
  0.368421  0.500000  0.500000      0.005556
  0.394737  0.500000  0.500000      0.005556
  0.421053  0.500000  0.500000      0.005556
  0.447368  0.500000  0.500000      0.005556
  0.473684  0.500000  0.500000      0.005556
  0.500000  0.500000  0.500000      0.005556
  0.500000  0.500000  0.500000      0.005556
  0.473684  0.473684  0.500000      0.005556
  0.447368  0.447368  0.500000      0.005556
  0.421053  0.421053  0.500000      0.005556
  0.394737  0.394737  0.500000      0.005556
  0.368421  0.368421  0.500000      0.005556
  0.342105  0.342105  0.500000      0.005556
  0.315789  0.315789  0.500000      0.005556
  0.289474  0.289474  0.500000      0.005556
  0.263158  0.263158  0.500000      0.005556
  0.236842  0.236842  0.500000      0.005556
  0.210526  0.210526  0.500000      0.005556
  0.184211  0.184211  0.500000      0.005556
  0.157895  0.157895  0.500000      0.005556
  0.131579  0.131579  0.500000      0.005556
  0.105263  0.105263  0.500000      0.005556
  0.078947  0.078947  0.500000      0.005556
  0.052632  0.052632  0.500000      0.005556
  0.026316  0.026316  0.500000      0.005556
  0.000000  0.000000  0.500000      0.005556
  0.000000  0.500000  0.000000      0.005556
  0.000000  0.500000  0.026316      0.005556
  0.000000  0.500000  0.052632      0.005556
  0.000000  0.500000  0.078947      0.005556
  0.000000  0.500000  0.105263      0.005556
  0.000000  0.500000  0.131579      0.005556
  0.000000  0.500000  0.157895      0.005556
  0.000000  0.500000  0.184211      0.005556
  0.000000  0.500000  0.210526      0.005556
  0.000000  0.500000  0.236842      0.005556
  0.000000  0.500000  0.263158      0.005556
  0.000000  0.500000  0.289474      0.005556
  0.000000  0.500000  0.315789      0.005556
  0.000000  0.500000  0.342105      0.005556
  0.000000  0.500000  0.368421      0.005556
  0.000000  0.500000  0.394737      0.005556
  0.000000  0.500000  0.421053      0.005556
  0.000000  0.500000  0.447368      0.005556
  0.000000  0.500000  0.473684      0.005556
  0.000000  0.500000  0.500000      0.005556
  0.500000  0.500000  0.000000      0.005556
  0.500000  0.500000  0.026316      0.005556
  0.500000  0.500000  0.052632      0.005556
  0.500000  0.500000  0.078947      0.005556
  0.500000  0.500000  0.105263      0.005556
  0.500000  0.500000  0.131579      0.005556
  0.500000  0.500000  0.157895      0.005556
  0.500000  0.500000  0.184211      0.005556
  0.500000  0.500000  0.210526      0.005556
  0.500000  0.500000  0.236842      0.005556
  0.500000  0.500000  0.263158      0.005556
  0.500000  0.500000  0.289474      0.005556
  0.500000  0.500000  0.315789      0.005556
  0.500000  0.500000  0.342105      0.005556
  0.500000  0.500000  0.368421      0.005556
  0.500000  0.500000  0.394737      0.005556
  0.500000  0.500000  0.421053      0.005556
  0.500000  0.500000  0.447368      0.005556
  0.500000  0.500000  0.473684      0.005556
  0.500000  0.500000  0.500000      0.005556

 Following cartesian coordinates:
            Coordinates               Weight
  0.000000  0.000000  0.000000      0.005556
  0.000000  0.005741  0.000000      0.005556
  0.000000  0.011482  0.000000      0.005556
  0.000000  0.017222  0.000000      0.005556
  0.000000  0.022963  0.000000      0.005556
  0.000000  0.028704  0.000000      0.005556
  0.000000  0.034445  0.000000      0.005556
  0.000000  0.040186  0.000000      0.005556
  0.000000  0.045926  0.000000      0.005556
  0.000000  0.051667  0.000000      0.005556
  0.000000  0.057408  0.000000      0.005556
  0.000000  0.063149  0.000000      0.005556
  0.000000  0.068890  0.000000      0.005556
  0.000000  0.074630  0.000000      0.005556
  0.000000  0.080371  0.000000      0.005556
  0.000000  0.086112  0.000000      0.005556
  0.000000  0.091853  0.000000      0.005556
  0.000000  0.097593  0.000000      0.005556
  0.000000  0.103334  0.000000      0.005556
  0.000000  0.109075  0.000000      0.005556
  0.000000  0.109075  0.000000      0.005556
  0.005741  0.109075  0.000000      0.005556
  0.011482  0.109075  0.000000      0.005556
  0.017222  0.109075  0.000000      0.005556
  0.022963  0.109075  0.000000      0.005556
  0.028704  0.109075  0.000000      0.005556
  0.034445  0.109075  0.000000      0.005556
  0.040186  0.109075  0.000000      0.005556
  0.045926  0.109075  0.000000      0.005556
  0.051667  0.109075  0.000000      0.005556
  0.057408  0.109075  0.000000      0.005556
  0.063149  0.109075  0.000000      0.005556
  0.068890  0.109075  0.000000      0.005556
  0.074630  0.109075  0.000000      0.005556
  0.080371  0.109075  0.000000      0.005556
  0.086112  0.109075  0.000000      0.005556
  0.091853  0.109075  0.000000      0.005556
  0.097593  0.109075  0.000000      0.005556
  0.103334  0.109075  0.000000      0.005556
  0.109075  0.109075  0.000000      0.005556
  0.109075  0.109075  0.000000      0.005556
  0.103334  0.103334  0.000000      0.005556
  0.097593  0.097593  0.000000      0.005556
  0.091853  0.091853  0.000000      0.005556
  0.086112  0.086112  0.000000      0.005556
  0.080371  0.080371  0.000000      0.005556
  0.074630  0.074630  0.000000      0.005556
  0.068890  0.068890  0.000000      0.005556
  0.063149  0.063149  0.000000      0.005556
  0.057408  0.057408  0.000000      0.005556
  0.051667  0.051667  0.000000      0.005556
  0.045926  0.045926  0.000000      0.005556
  0.040186  0.040186  0.000000      0.005556
  0.034445  0.034445  0.000000      0.005556
  0.028704  0.028704  0.000000      0.005556
  0.022963  0.022963  0.000000      0.005556
  0.017222  0.017222  0.000000      0.005556
  0.011482  0.011482  0.000000      0.005556
  0.005741  0.005741  0.000000      0.005556
  0.000000  0.000000  0.000000      0.005556
  0.000000  0.000000  0.000000      0.005556
  0.000000  0.000000  0.008912      0.005556
  0.000000  0.000000  0.017823      0.005556
  0.000000  0.000000  0.026735      0.005556
  0.000000  0.000000  0.035646      0.005556
  0.000000  0.000000  0.044558      0.005556
  0.000000  0.000000  0.053469      0.005556
  0.000000  0.000000  0.062381      0.005556
  0.000000  0.000000  0.071292      0.005556
  0.000000  0.000000  0.080204      0.005556
  0.000000  0.000000  0.089115      0.005556
  0.000000  0.000000  0.098027      0.005556
  0.000000  0.000000  0.106939      0.005556
  0.000000  0.000000  0.115850      0.005556
  0.000000  0.000000  0.124762      0.005556
  0.000000  0.000000  0.133673      0.005556
  0.000000  0.000000  0.142585      0.005556
  0.000000  0.000000  0.151496      0.005556
  0.000000  0.000000  0.160408      0.005556
  0.000000  0.000000  0.169319      0.005556
  0.000000  0.000000  0.169319      0.005556
  0.000000  0.005741  0.169319      0.005556
  0.000000  0.011482  0.169319      0.005556
  0.000000  0.017222  0.169319      0.005556
  0.000000  0.022963  0.169319      0.005556
  0.000000  0.028704  0.169319      0.005556
  0.000000  0.034445  0.169319      0.005556
  0.000000  0.040186  0.169319      0.005556
  0.000000  0.045926  0.169319      0.005556
  0.000000  0.051667  0.169319      0.005556
  0.000000  0.057408  0.169319      0.005556
  0.000000  0.063149  0.169319      0.005556
  0.000000  0.068890  0.169319      0.005556
  0.000000  0.074630  0.169319      0.005556
  0.000000  0.080371  0.169319      0.005556
  0.000000  0.086112  0.169319      0.005556
  0.000000  0.091853  0.169319      0.005556
  0.000000  0.097593  0.169319      0.005556
  0.000000  0.103334  0.169319      0.005556
  0.000000  0.109075  0.169319      0.005556
  0.000000  0.109075  0.169319      0.005556
  0.005741  0.109075  0.169319      0.005556
  0.011482  0.109075  0.169319      0.005556
  0.017222  0.109075  0.169319      0.005556
  0.022963  0.109075  0.169319      0.005556
  0.028704  0.109075  0.169319      0.005556
  0.034445  0.109075  0.169319      0.005556
  0.040186  0.109075  0.169319      0.005556
  0.045926  0.109075  0.169319      0.005556
  0.051667  0.109075  0.169319      0.005556
  0.057408  0.109075  0.169319      0.005556
  0.063149  0.109075  0.169319      0.005556
  0.068890  0.109075  0.169319      0.005556
  0.074630  0.109075  0.169319      0.005556
  0.080371  0.109075  0.169319      0.005556
  0.086112  0.109075  0.169319      0.005556
  0.091853  0.109075  0.169319      0.005556
  0.097593  0.109075  0.169319      0.005556
  0.103334  0.109075  0.169319      0.005556
  0.109075  0.109075  0.169319      0.005556
  0.109075  0.109075  0.169319      0.005556
  0.103334  0.103334  0.169319      0.005556
  0.097593  0.097593  0.169319      0.005556
  0.091853  0.091853  0.169319      0.005556
  0.086112  0.086112  0.169319      0.005556
  0.080371  0.080371  0.169319      0.005556
  0.074630  0.074630  0.169319      0.005556
  0.068890  0.068890  0.169319      0.005556
  0.063149  0.063149  0.169319      0.005556
  0.057408  0.057408  0.169319      0.005556
  0.051667  0.051667  0.169319      0.005556
  0.045926  0.045926  0.169319      0.005556
  0.040186  0.040186  0.169319      0.005556
  0.034445  0.034445  0.169319      0.005556
  0.028704  0.028704  0.169319      0.005556
  0.022963  0.022963  0.169319      0.005556
  0.017222  0.017222  0.169319      0.005556
  0.011482  0.011482  0.169319      0.005556
  0.005741  0.005741  0.169319      0.005556
  0.000000  0.000000  0.169319      0.005556
  0.000000  0.109075  0.000000      0.005556
  0.000000  0.109075  0.008912      0.005556
  0.000000  0.109075  0.017823      0.005556
  0.000000  0.109075  0.026735      0.005556
  0.000000  0.109075  0.035646      0.005556
  0.000000  0.109075  0.044558      0.005556
  0.000000  0.109075  0.053469      0.005556
  0.000000  0.109075  0.062381      0.005556
  0.000000  0.109075  0.071292      0.005556
  0.000000  0.109075  0.080204      0.005556
  0.000000  0.109075  0.089115      0.005556
  0.000000  0.109075  0.098027      0.005556
  0.000000  0.109075  0.106939      0.005556
  0.000000  0.109075  0.115850      0.005556
  0.000000  0.109075  0.124762      0.005556
  0.000000  0.109075  0.133673      0.005556
  0.000000  0.109075  0.142585      0.005556
  0.000000  0.109075  0.151496      0.005556
  0.000000  0.109075  0.160408      0.005556
  0.000000  0.109075  0.169319      0.005556
  0.109075  0.109075  0.000000      0.005556
  0.109075  0.109075  0.008912      0.005556
  0.109075  0.109075  0.017823      0.005556
  0.109075  0.109075  0.026735      0.005556
  0.109075  0.109075  0.035646      0.005556
  0.109075  0.109075  0.044558      0.005556
  0.109075  0.109075  0.053469      0.005556
  0.109075  0.109075  0.062381      0.005556
  0.109075  0.109075  0.071292      0.005556
  0.109075  0.109075  0.080204      0.005556
  0.109075  0.109075  0.089115      0.005556
  0.109075  0.109075  0.098027      0.005556
  0.109075  0.109075  0.106939      0.005556
  0.109075  0.109075  0.115850      0.005556
  0.109075  0.109075  0.124762      0.005556
  0.109075  0.109075  0.133673      0.005556
  0.109075  0.109075  0.142585      0.005556
  0.109075  0.109075  0.151496      0.005556
  0.109075  0.109075  0.160408      0.005556
  0.109075  0.109075  0.169319      0.005556
 


--------------------------------------------------------------------------------------------------------




 Dimension of arrays:
   k-points           NKPTS =    180   k-points in BZ     NKDIM =    180   number of bands    NBANDS=     28
   number of dos      NEDOS =    301   number of ions     NIONS =      6
   non local maximal  LDIM  =      6   non local SUM 2l+1 LMDIM =     18
   total plane-waves  NPLWV =   9216
   max r-space proj   IRMAX =      1   max aug-charges    IRDMAX=   5965
   dimension x,y,z NGX =    24 NGY =   24 NGZ =   16
   dimension x,y,z NGXF=    48 NGYF=   48 NGZF=   32
   support grid    NGXF=    48 NGYF=   48 NGZF=   32
   ions per type =               2   4
   NGX,Y,Z   is equivalent  to a cutoff of   8.70,  8.70,  9.01 a.u.
   NGXF,Y,Z  is equivalent  to a cutoff of  17.41, 17.41, 18.02 a.u.

 SYSTEM =  TiO2                                    
 POSCAR =  Rutile TiO2                             

 Startparameter for this run:
   NWRITE =      2    write-flag & timer
   PREC   = normal    normal or accurate (medium, high low for compatibility)
   ISTART =      1    job   : 0-new  1-cont  2-samecut
   ICHARG =     11    charge: 1-file 2-atom 10-const
   ISPIN  =      1    spin polarized calculation?
   LNONCOLLINEAR =      F non collinear calculations
   LSORBIT =      F    spin-orbit coupling
   INIWAV =      1    electr: 0-lowe 1-rand  2-diag
   LASPH  =      F    aspherical Exc in radial PAW
   METAGGA=      F    non-selfconsistent MetaGGA calc.

 Electronic Relaxation 1
   ENCUT  =  460.0 eV  33.81 Ry    5.81 a.u.   8.02  8.02  5.16*2*pi/ulx,y,z
   ENINI  =  460.0     initial cutoff
   ENAUG  =  482.8 eV  augmentation charge cutoff
   NELM   =     60;   NELMIN=  2; NELMDL=  0     # of ELM steps 
   EDIFF  = 0.1E-04   stopping-criterion for ELM
   LREAL  =      F    real-space projection
   NLSPLINE    = F    spline interpolate recip. space projectors
   LCOMPAT=      F    compatible to vasp.4.4
   GGA_COMPAT  = T    GGA compatible to vasp.4.4-vasp.4.6
   LMAXPAW     = -100 max onsite density
   LMAXMIX     =    2 max onsite mixed and CHGCAR
   VOSKOWN=      0    Vosko Wilk Nusair interpolation
   ROPT   =    0.00000   0.00000
 Ionic relaxation
   EDIFFG = 0.1E-03   stopping-criterion for IOM
   NSW    =      0    number of steps for IOM
   NBLOCK =      1;   KBLOCK =      1    inner block; outer block 
   IBRION =     -1    ionic relax: 0-MD 1-quasi-New 2-CG
   NFREE  =      0    steps in history (QN), initial steepest desc. (CG)
   ISIF   =      2    stress and relaxation
   IWAVPR =     10    prediction:  0-non 1-charg 2-wave 3-comb
   ISYM   =      2    0-nonsym 1-usesym 2-fastsym
   LCORR  =      T    Harris-Foulkes like correction to forces

   POTIM  = 0.5000    time-step for ionic-motion
   TEIN   =    0.0    initial temperature
   TEBEG  =    0.0;   TEEND  =   0.0 temperature during run
   SMASS  =  -3.00    Nose mass-parameter (am)
   estimated Nose-frequenzy (Omega)   =  0.10E-29 period in steps = 0.13E+47 mass=  -0.480E-27a.u.
   SCALEE = 1.0000    scale energy and forces
   NPACO  =    256;   APACO  = 16.0  distance and # of slots for P.C.
   PSTRESS=    0.0 pullay stress

  Mass of Ions in am
   POMASS =  47.88 16.00
  Ionic Valenz
   ZVAL   =  12.00  6.00
  Atomic Wigner-Seitz radii
   RWIGS  =  -1.00 -1.00
  virtual crystal weights 
   VCA    =   1.00  1.00
   NELECT =      48.0000    total number of electrons
   NUPDOWN=      -1.0000    fix difference up-down

 DOS related values:
   EMIN   =  10.00;   EMAX   =-10.00  energy-range for DOS
   EFERMI =   0.00
   ISMEAR =     0;   SIGMA  =   0.01  broadening in eV -4-tet -1-fermi 0-gaus

 Electronic relaxation 2 (details)
   IALGO  =     38    algorithm
   LDIAG  =      T    sub-space diagonalisation (order eigenvalues)
   LSUBROT=      F    optimize rotation matrix (better conditioning)
   TURBO    =      0    0=normal 1=particle mesh
   IRESTART =      0    0=no restart 2=restart with 2 vectors
   NREBOOT  =      0    no. of reboots
   NMIN     =      0    reboot dimension
   EREF     =   0.00    reference energy to select bands
   IMIX   =      4    mixing-type and parameters
     AMIX     =   0.40;   BMIX     =  1.00
     AMIX_MAG =   1.60;   BMIX_MAG =  1.00
     AMIN     =   0.10
     WC   =   100.;   INIMIX=   1;  MIXPRE=   1;  MAXMIX= -45

 Intra band minimization:
   WEIMIN = 0.0000     energy-eigenvalue tresh-hold
   EBREAK =  0.89E-07  absolut break condition
   DEPER  =   0.30     relativ break condition  

   TIME   =   0.40     timestep for ELM

  volume/ion in A,a.u.               =      10.34        69.79
  Fermi-wavevector in a.u.,A,eV,Ry     =   1.502811  2.839901 30.727952  2.258441
  Thomas-Fermi vector in A             =   2.614003
 
 Write flags
   LWAVE        =      T    write WAVECAR
   LDOWNSAMPLE  =      F    k-point downsampling of WAVECAR
   LCHARG       =      T    write CHGCAR
   LVTOT        =      F    write LOCPOT, total local potential
   LVHAR        =      F    write LOCPOT, Hartree potential only
   LELF         =      F    write electronic localiz. function (ELF)
   LORBIT       =      0    0 simple, 1 ext, 2 COOP (PROOUT), +10 PAW based schemes


 Dipole corrections
   LMONO  =      F    monopole corrections only (constant potential shift)
   LDIPOL =      F    correct potential (dipole corrections)
   IDIPOL =      0    1-x, 2-y, 3-z, 4-all directions 
   EPSILON=  1.0000000 bulk dielectric constant

 Exchange correlation treatment:
   GGA     =    --    GGA type
   LEXCH   =     8    internal setting for exchange type
   VOSKOWN=      0    Vosko Wilk Nusair interpolation
   LHFCALC =     F    Hartree Fock is set to
   LHFONE  =     F    Hartree Fock one center treatment
   AEXX    =    0.0000 exact exchange contribution

 Linear response parameters
   LEPSILON=     F    determine dielectric tensor
   LRPA    =     F    only Hartree local field effects (RPA)
   LNABLA  =     F    use nabla operator in PAW spheres
   LVEL    =     F    velocity operator in full k-point grid
   LINTERFAST=   F  fast interpolation
   KINTER  =     0    interpolate to denser k-point grid
   CSHIFT  =0.1000    complex shift for real part using Kramers Kronig
   OMEGAMAX=  -1.0    maximum frequency
   DEG_THRESHOLD= 0.2000000E-02 threshold for treating states as degnerate
   RTIME   =   -0.100 relaxation time in fs
  (WPLASMAI=    0.000 imaginary part of plasma frequency in eV, 0.658/RTIME)
   DFIELD  = 0.0000000 0.0000000 0.0000000 field for delta impulse in time
 
 Orbital magnetization related:
   ORBITALMAG=     F  switch on orbital magnetization
   LCHIMAG   =     F  perturbation theory with respect to B field
   DQ        =  0.001000  dq finite difference perturbation B field
   LLRAUG    =     F  two centre corrections for induced B field



--------------------------------------------------------------------------------------------------------


 Static calculation
 charge density and potential remain constant during run
 non-spin polarized calculation
 Variant of blocked Davidson
 Davidson routine will perform the subspace rotation
 perform sub-space diagonalisation
    after iterative eigenvector-optimisation
 no mixing
 using additional bands            4
 reciprocal scheme for non local part
 use partial core corrections
 calculate Harris-corrections to forces 
   (improved forces if not selfconsistent)
 use gradient corrections 
 WARNING: stress and forces are not correct
  (second derivative of E(xc) not defined)
 use of overlap-Matrix (Vanderbilt PP)
 Gauss-broadening in eV      SIGMA  =   0.01


--------------------------------------------------------------------------------------------------------


  energy-cutoff  :      460.00
  volume of cell :       62.05
      direct lattice vectors                 reciprocal lattice vectors
     4.584000000  0.000000000  0.000000000     0.218150087  0.000000000  0.000000000
     0.000000000  4.584000000  0.000000000     0.000000000  0.218150087  0.000000000
     0.000000000  0.000000000  2.953000000     0.000000000  0.000000000  0.338638673

  length of vectors
     4.584000000  4.584000000  2.953000000     0.218150087  0.218150087  0.338638673


 
 old parameters found on file WAVECAR:
  energy-cutoff  :      460.00
  volume of cell :       62.05
      direct lattice vectors                 reciprocal lattice vectors
     4.584000000  0.000000000  0.000000000     0.218150087  0.000000000  0.000000000
     0.000000000  4.584000000  0.000000000     0.000000000  0.218150087  0.000000000
     0.000000000  0.000000000  2.953000000     0.000000000  0.000000000  0.338638673

  length of vectors

 
 k-points in units of 2pi/SCALE and weight: K-Path Generated by VASPKIT.            
   0.00000000  0.00000000  0.00000000       0.006
   0.00000000  0.00574079  0.00000000       0.006
   0.00000000  0.01148158  0.00000000       0.006
   0.00000000  0.01722238  0.00000000       0.006
   0.00000000  0.02296317  0.00000000       0.006
   0.00000000  0.02870396  0.00000000       0.006
   0.00000000  0.03444475  0.00000000       0.006
   0.00000000  0.04018554  0.00000000       0.006
   0.00000000  0.04592633  0.00000000       0.006
   0.00000000  0.05166713  0.00000000       0.006
   0.00000000  0.05740792  0.00000000       0.006
   0.00000000  0.06314871  0.00000000       0.006
   0.00000000  0.06888950  0.00000000       0.006
   0.00000000  0.07463029  0.00000000       0.006
   0.00000000  0.08037108  0.00000000       0.006
   0.00000000  0.08611188  0.00000000       0.006
   0.00000000  0.09185267  0.00000000       0.006
   0.00000000  0.09759346  0.00000000       0.006
   0.00000000  0.10333425  0.00000000       0.006
   0.00000000  0.10907504  0.00000000       0.006
   0.00000000  0.10907504  0.00000000       0.006
   0.00574079  0.10907504  0.00000000       0.006
   0.01148158  0.10907504  0.00000000       0.006
   0.01722238  0.10907504  0.00000000       0.006
   0.02296317  0.10907504  0.00000000       0.006
   0.02870396  0.10907504  0.00000000       0.006
   0.03444475  0.10907504  0.00000000       0.006
   0.04018554  0.10907504  0.00000000       0.006
   0.04592633  0.10907504  0.00000000       0.006
   0.05166713  0.10907504  0.00000000       0.006
   0.05740792  0.10907504  0.00000000       0.006
   0.06314871  0.10907504  0.00000000       0.006
   0.06888950  0.10907504  0.00000000       0.006
   0.07463029  0.10907504  0.00000000       0.006
   0.08037108  0.10907504  0.00000000       0.006
   0.08611188  0.10907504  0.00000000       0.006
   0.09185267  0.10907504  0.00000000       0.006
   0.09759346  0.10907504  0.00000000       0.006
   0.10333425  0.10907504  0.00000000       0.006
   0.10907504  0.10907504  0.00000000       0.006
   0.10907504  0.10907504  0.00000000       0.006
   0.10333425  0.10333425  0.00000000       0.006
   0.09759346  0.09759346  0.00000000       0.006
   0.09185267  0.09185267  0.00000000       0.006
   0.08611188  0.08611188  0.00000000       0.006
   0.08037108  0.08037108  0.00000000       0.006
   0.07463029  0.07463029  0.00000000       0.006
   0.06888950  0.06888950  0.00000000       0.006
   0.06314871  0.06314871  0.00000000       0.006
   0.05740792  0.05740792  0.00000000       0.006
   0.05166713  0.05166713  0.00000000       0.006
   0.04592633  0.04592633  0.00000000       0.006
   0.04018554  0.04018554  0.00000000       0.006
   0.03444475  0.03444475  0.00000000       0.006
   0.02870396  0.02870396  0.00000000       0.006
   0.02296317  0.02296317  0.00000000       0.006
   0.01722238  0.01722238  0.00000000       0.006
   0.01148158  0.01148158  0.00000000       0.006
   0.00574079  0.00574079  0.00000000       0.006
   0.00000000  0.00000000  0.00000000       0.006
   0.00000000  0.00000000  0.00000000       0.006
   0.00000000  0.00000000  0.00891154       0.006
   0.00000000  0.00000000  0.01782309       0.006
   0.00000000  0.00000000  0.02673463       0.006
   0.00000000  0.00000000  0.03564618       0.006
   0.00000000  0.00000000  0.04455772       0.006
   0.00000000  0.00000000  0.05346926       0.006
   0.00000000  0.00000000  0.06238081       0.006
   0.00000000  0.00000000  0.07129235       0.006
   0.00000000  0.00000000  0.08020390       0.006
   0.00000000  0.00000000  0.08911544       0.006
   0.00000000  0.00000000  0.09802698       0.006
   0.00000000  0.00000000  0.10693853       0.006
   0.00000000  0.00000000  0.11585007       0.006
   0.00000000  0.00000000  0.12476162       0.006
   0.00000000  0.00000000  0.13367316       0.006
   0.00000000  0.00000000  0.14258470       0.006
   0.00000000  0.00000000  0.15149625       0.006
   0.00000000  0.00000000  0.16040779       0.006
   0.00000000  0.00000000  0.16931934       0.006
   0.00000000  0.00000000  0.16931934       0.006
   0.00000000  0.00574079  0.16931934       0.006
   0.00000000  0.01148158  0.16931934       0.006
   0.00000000  0.01722238  0.16931934       0.006
   0.00000000  0.02296317  0.16931934       0.006
   0.00000000  0.02870396  0.16931934       0.006
   0.00000000  0.03444475  0.16931934       0.006
   0.00000000  0.04018554  0.16931934       0.006
   0.00000000  0.04592633  0.16931934       0.006
   0.00000000  0.05166713  0.16931934       0.006
   0.00000000  0.05740792  0.16931934       0.006
   0.00000000  0.06314871  0.16931934       0.006
   0.00000000  0.06888950  0.16931934       0.006
   0.00000000  0.07463029  0.16931934       0.006
   0.00000000  0.08037108  0.16931934       0.006
   0.00000000  0.08611188  0.16931934       0.006
   0.00000000  0.09185267  0.16931934       0.006
   0.00000000  0.09759346  0.16931934       0.006
   0.00000000  0.10333425  0.16931934       0.006
   0.00000000  0.10907504  0.16931934       0.006
   0.00000000  0.10907504  0.16931934       0.006
   0.00574079  0.10907504  0.16931934       0.006
   0.01148158  0.10907504  0.16931934       0.006
   0.01722238  0.10907504  0.16931934       0.006
   0.02296317  0.10907504  0.16931934       0.006
   0.02870396  0.10907504  0.16931934       0.006
   0.03444475  0.10907504  0.16931934       0.006
   0.04018554  0.10907504  0.16931934       0.006
   0.04592633  0.10907504  0.16931934       0.006
   0.05166713  0.10907504  0.16931934       0.006
   0.05740792  0.10907504  0.16931934       0.006
   0.06314871  0.10907504  0.16931934       0.006
   0.06888950  0.10907504  0.16931934       0.006
   0.07463029  0.10907504  0.16931934       0.006
   0.08037108  0.10907504  0.16931934       0.006
   0.08611188  0.10907504  0.16931934       0.006
   0.09185267  0.10907504  0.16931934       0.006
   0.09759346  0.10907504  0.16931934       0.006
   0.10333425  0.10907504  0.16931934       0.006
   0.10907504  0.10907504  0.16931934       0.006
   0.10907504  0.10907504  0.16931934       0.006
   0.10333425  0.10333425  0.16931934       0.006
   0.09759346  0.09759346  0.16931934       0.006
   0.09185267  0.09185267  0.16931934       0.006
   0.08611188  0.08611188  0.16931934       0.006
   0.08037108  0.08037108  0.16931934       0.006
   0.07463029  0.07463029  0.16931934       0.006
   0.06888950  0.06888950  0.16931934       0.006
   0.06314871  0.06314871  0.16931934       0.006
   0.05740792  0.05740792  0.16931934       0.006
   0.05166713  0.05166713  0.16931934       0.006
   0.04592633  0.04592633  0.16931934       0.006
   0.04018554  0.04018554  0.16931934       0.006
   0.03444475  0.03444475  0.16931934       0.006
   0.02870396  0.02870396  0.16931934       0.006
   0.02296317  0.02296317  0.16931934       0.006
   0.01722238  0.01722238  0.16931934       0.006
   0.01148158  0.01148158  0.16931934       0.006
   0.00574079  0.00574079  0.16931934       0.006
   0.00000000  0.00000000  0.16931934       0.006
   0.00000000  0.10907504  0.00000000       0.006
   0.00000000  0.10907504  0.00891154       0.006
   0.00000000  0.10907504  0.01782309       0.006
   0.00000000  0.10907504  0.02673463       0.006
   0.00000000  0.10907504  0.03564618       0.006
   0.00000000  0.10907504  0.04455772       0.006
   0.00000000  0.10907504  0.05346926       0.006
   0.00000000  0.10907504  0.06238081       0.006
   0.00000000  0.10907504  0.07129235       0.006
   0.00000000  0.10907504  0.08020390       0.006
   0.00000000  0.10907504  0.08911544       0.006
   0.00000000  0.10907504  0.09802698       0.006
   0.00000000  0.10907504  0.10693853       0.006
   0.00000000  0.10907504  0.11585007       0.006
   0.00000000  0.10907504  0.12476162       0.006
   0.00000000  0.10907504  0.13367316       0.006
   0.00000000  0.10907504  0.14258470       0.006
   0.00000000  0.10907504  0.15149625       0.006
   0.00000000  0.10907504  0.16040779       0.006
   0.00000000  0.10907504  0.16931934       0.006
   0.10907504  0.10907504  0.00000000       0.006
   0.10907504  0.10907504  0.00891154       0.006
   0.10907504  0.10907504  0.01782309       0.006
   0.10907504  0.10907504  0.02673463       0.006
   0.10907504  0.10907504  0.03564618       0.006
   0.10907504  0.10907504  0.04455772       0.006
   0.10907504  0.10907504  0.05346926       0.006
   0.10907504  0.10907504  0.06238081       0.006
   0.10907504  0.10907504  0.07129235       0.006
   0.10907504  0.10907504  0.08020390       0.006
   0.10907504  0.10907504  0.08911544       0.006
   0.10907504  0.10907504  0.09802698       0.006
   0.10907504  0.10907504  0.10693853       0.006
   0.10907504  0.10907504  0.11585007       0.006
   0.10907504  0.10907504  0.12476162       0.006
   0.10907504  0.10907504  0.13367316       0.006
   0.10907504  0.10907504  0.14258470       0.006
   0.10907504  0.10907504  0.15149625       0.006
   0.10907504  0.10907504  0.16040779       0.006
   0.10907504  0.10907504  0.16931934       0.006
 
 k-points in reciprocal lattice and weights: K-Path Generated by VASPKIT.            
   0.00000000  0.00000000  0.00000000       0.006
   0.00000000  0.02631579  0.00000000       0.006
   0.00000000  0.05263158  0.00000000       0.006
   0.00000000  0.07894737  0.00000000       0.006
   0.00000000  0.10526316  0.00000000       0.006
   0.00000000  0.13157895  0.00000000       0.006
   0.00000000  0.15789474  0.00000000       0.006
   0.00000000  0.18421053  0.00000000       0.006
   0.00000000  0.21052632  0.00000000       0.006
   0.00000000  0.23684211  0.00000000       0.006
   0.00000000  0.26315789  0.00000000       0.006
   0.00000000  0.28947368  0.00000000       0.006
   0.00000000  0.31578947  0.00000000       0.006
   0.00000000  0.34210526  0.00000000       0.006
   0.00000000  0.36842105  0.00000000       0.006
   0.00000000  0.39473684  0.00000000       0.006
   0.00000000  0.42105263  0.00000000       0.006
   0.00000000  0.44736842  0.00000000       0.006
   0.00000000  0.47368421  0.00000000       0.006
   0.00000000  0.50000000  0.00000000       0.006
   0.00000000  0.50000000  0.00000000       0.006
   0.02631579  0.50000000  0.00000000       0.006
   0.05263158  0.50000000  0.00000000       0.006
   0.07894737  0.50000000  0.00000000       0.006
   0.10526316  0.50000000  0.00000000       0.006
   0.13157895  0.50000000  0.00000000       0.006
   0.15789474  0.50000000  0.00000000       0.006
   0.18421053  0.50000000  0.00000000       0.006
   0.21052632  0.50000000  0.00000000       0.006
   0.23684211  0.50000000  0.00000000       0.006
   0.26315789  0.50000000  0.00000000       0.006
   0.28947368  0.50000000  0.00000000       0.006
   0.31578947  0.50000000  0.00000000       0.006
   0.34210526  0.50000000  0.00000000       0.006
   0.36842105  0.50000000  0.00000000       0.006
   0.39473684  0.50000000  0.00000000       0.006
   0.42105263  0.50000000  0.00000000       0.006
   0.44736842  0.50000000  0.00000000       0.006
   0.47368421  0.50000000  0.00000000       0.006
   0.50000000  0.50000000  0.00000000       0.006
   0.50000000  0.50000000  0.00000000       0.006
   0.47368421  0.47368421  0.00000000       0.006
   0.44736842  0.44736842  0.00000000       0.006
   0.42105263  0.42105263  0.00000000       0.006
   0.39473684  0.39473684  0.00000000       0.006
   0.36842105  0.36842105  0.00000000       0.006
   0.34210526  0.34210526  0.00000000       0.006
   0.31578947  0.31578947  0.00000000       0.006
   0.28947368  0.28947368  0.00000000       0.006
   0.26315789  0.26315789  0.00000000       0.006
   0.23684211  0.23684211  0.00000000       0.006
   0.21052632  0.21052632  0.00000000       0.006
   0.18421053  0.18421053  0.00000000       0.006
   0.15789474  0.15789474  0.00000000       0.006
   0.13157895  0.13157895  0.00000000       0.006
   0.10526316  0.10526316  0.00000000       0.006
   0.07894737  0.07894737  0.00000000       0.006
   0.05263158  0.05263158  0.00000000       0.006
   0.02631579  0.02631579  0.00000000       0.006
   0.00000000  0.00000000  0.00000000       0.006
   0.00000000  0.00000000  0.00000000       0.006
   0.00000000  0.00000000  0.02631579       0.006
   0.00000000  0.00000000  0.05263158       0.006
   0.00000000  0.00000000  0.07894737       0.006
   0.00000000  0.00000000  0.10526316       0.006
   0.00000000  0.00000000  0.13157895       0.006
   0.00000000  0.00000000  0.15789474       0.006
   0.00000000  0.00000000  0.18421053       0.006
   0.00000000  0.00000000  0.21052632       0.006
   0.00000000  0.00000000  0.23684211       0.006
   0.00000000  0.00000000  0.26315789       0.006
   0.00000000  0.00000000  0.28947368       0.006
   0.00000000  0.00000000  0.31578947       0.006
   0.00000000  0.00000000  0.34210526       0.006
   0.00000000  0.00000000  0.36842105       0.006
   0.00000000  0.00000000  0.39473684       0.006
   0.00000000  0.00000000  0.42105263       0.006
   0.00000000  0.00000000  0.44736842       0.006
   0.00000000  0.00000000  0.47368421       0.006
   0.00000000  0.00000000  0.50000000       0.006
   0.00000000  0.00000000  0.50000000       0.006
   0.00000000  0.02631579  0.50000000       0.006
   0.00000000  0.05263158  0.50000000       0.006
   0.00000000  0.07894737  0.50000000       0.006
   0.00000000  0.10526316  0.50000000       0.006
   0.00000000  0.13157895  0.50000000       0.006
   0.00000000  0.15789474  0.50000000       0.006
   0.00000000  0.18421053  0.50000000       0.006
   0.00000000  0.21052632  0.50000000       0.006
   0.00000000  0.23684211  0.50000000       0.006
   0.00000000  0.26315789  0.50000000       0.006
   0.00000000  0.28947368  0.50000000       0.006
   0.00000000  0.31578947  0.50000000       0.006
   0.00000000  0.34210526  0.50000000       0.006
   0.00000000  0.36842105  0.50000000       0.006
   0.00000000  0.39473684  0.50000000       0.006
   0.00000000  0.42105263  0.50000000       0.006
   0.00000000  0.44736842  0.50000000       0.006
   0.00000000  0.47368421  0.50000000       0.006
   0.00000000  0.50000000  0.50000000       0.006
   0.00000000  0.50000000  0.50000000       0.006
   0.02631579  0.50000000  0.50000000       0.006
   0.05263158  0.50000000  0.50000000       0.006
   0.07894737  0.50000000  0.50000000       0.006
   0.10526316  0.50000000  0.50000000       0.006
   0.13157895  0.50000000  0.50000000       0.006
   0.15789474  0.50000000  0.50000000       0.006
   0.18421053  0.50000000  0.50000000       0.006
   0.21052632  0.50000000  0.50000000       0.006
   0.23684211  0.50000000  0.50000000       0.006
   0.26315789  0.50000000  0.50000000       0.006
   0.28947368  0.50000000  0.50000000       0.006
   0.31578947  0.50000000  0.50000000       0.006
   0.34210526  0.50000000  0.50000000       0.006
   0.36842105  0.50000000  0.50000000       0.006
   0.39473684  0.50000000  0.50000000       0.006
   0.42105263  0.50000000  0.50000000       0.006
   0.44736842  0.50000000  0.50000000       0.006
   0.47368421  0.50000000  0.50000000       0.006
   0.50000000  0.50000000  0.50000000       0.006
   0.50000000  0.50000000  0.50000000       0.006
   0.47368421  0.47368421  0.50000000       0.006
   0.44736842  0.44736842  0.50000000       0.006
   0.42105263  0.42105263  0.50000000       0.006
   0.39473684  0.39473684  0.50000000       0.006
   0.36842105  0.36842105  0.50000000       0.006
   0.34210526  0.34210526  0.50000000       0.006
   0.31578947  0.31578947  0.50000000       0.006
   0.28947368  0.28947368  0.50000000       0.006
   0.26315789  0.26315789  0.50000000       0.006
   0.23684211  0.23684211  0.50000000       0.006
   0.21052632  0.21052632  0.50000000       0.006
   0.18421053  0.18421053  0.50000000       0.006
   0.15789474  0.15789474  0.50000000       0.006
   0.13157895  0.13157895  0.50000000       0.006
   0.10526316  0.10526316  0.50000000       0.006
   0.07894737  0.07894737  0.50000000       0.006
   0.05263158  0.05263158  0.50000000       0.006
   0.02631579  0.02631579  0.50000000       0.006
   0.00000000  0.00000000  0.50000000       0.006
   0.00000000  0.50000000  0.00000000       0.006
   0.00000000  0.50000000  0.02631579       0.006
   0.00000000  0.50000000  0.05263158       0.006
   0.00000000  0.50000000  0.07894737       0.006
   0.00000000  0.50000000  0.10526316       0.006
   0.00000000  0.50000000  0.13157895       0.006
   0.00000000  0.50000000  0.15789474       0.006
   0.00000000  0.50000000  0.18421053       0.006
   0.00000000  0.50000000  0.21052632       0.006
   0.00000000  0.50000000  0.23684211       0.006
   0.00000000  0.50000000  0.26315789       0.006
   0.00000000  0.50000000  0.28947368       0.006
   0.00000000  0.50000000  0.31578947       0.006
   0.00000000  0.50000000  0.34210526       0.006
   0.00000000  0.50000000  0.36842105       0.006
   0.00000000  0.50000000  0.39473684       0.006
   0.00000000  0.50000000  0.42105263       0.006
   0.00000000  0.50000000  0.44736842       0.006
   0.00000000  0.50000000  0.47368421       0.006
   0.00000000  0.50000000  0.50000000       0.006
   0.50000000  0.50000000  0.00000000       0.006
   0.50000000  0.50000000  0.02631579       0.006
   0.50000000  0.50000000  0.05263158       0.006
   0.50000000  0.50000000  0.07894737       0.006
   0.50000000  0.50000000  0.10526316       0.006
   0.50000000  0.50000000  0.13157895       0.006
   0.50000000  0.50000000  0.15789474       0.006
   0.50000000  0.50000000  0.18421053       0.006
   0.50000000  0.50000000  0.21052632       0.006
   0.50000000  0.50000000  0.23684211       0.006
   0.50000000  0.50000000  0.26315789       0.006
   0.50000000  0.50000000  0.28947368       0.006
   0.50000000  0.50000000  0.31578947       0.006
   0.50000000  0.50000000  0.34210526       0.006
   0.50000000  0.50000000  0.36842105       0.006
   0.50000000  0.50000000  0.39473684       0.006
   0.50000000  0.50000000  0.42105263       0.006
   0.50000000  0.50000000  0.44736842       0.006
   0.50000000  0.50000000  0.47368421       0.006
   0.50000000  0.50000000  0.50000000       0.006
 
 position of ions in fractional coordinates (direct lattice) 
   0.00000000  0.00000000  0.00000000
   0.50000000  0.50000000  0.50000000
   0.19620933  0.80379067  0.50000000
   0.80379067  0.19620933  0.50000000
   0.30379067  0.30379067  0.00000000
   0.69620933  0.69620933  0.00000000
 
 position of ions in cartesian coordinates  (Angst):
   0.00000000  0.00000000  0.00000000
   2.29200000  2.29200000  1.47650000
   0.89942357  3.68457643  1.47650000
   3.68457643  0.89942357  1.47650000
   1.39257643  1.39257643  0.00000000
   3.19142357  3.19142357  0.00000000
 


--------------------------------------------------------------------------------------------------------


 k-point   1 :   0.0000 0.0000 0.0000  plane waves:    1399
 k-point   2 :   0.0000 0.0263 0.0000  plane waves:    1396
 k-point   3 :   0.0000 0.0526 0.0000  plane waves:    1402
 k-point   4 :   0.0000 0.0789 0.0000  plane waves:    1398
 k-point   5 :   0.0000 0.1053 0.0000  plane waves:    1392
 k-point   6 :   0.0000 0.1316 0.0000  plane waves:    1384
 k-point   7 :   0.0000 0.1579 0.0000  plane waves:    1378
 k-point   8 :   0.0000 0.1842 0.0000  plane waves:    1382
 k-point   9 :   0.0000 0.2105 0.0000  plane waves:    1386
 k-point  10 :   0.0000 0.2368 0.0000  plane waves:    1382
 k-point  11 :   0.0000 0.2632 0.0000  plane waves:    1392
 k-point  12 :   0.0000 0.2895 0.0000  plane waves:    1386
 k-point  13 :   0.0000 0.3158 0.0000  plane waves:    1382
 k-point  14 :   0.0000 0.3421 0.0000  plane waves:    1380
 k-point  15 :   0.0000 0.3684 0.0000  plane waves:    1380
 k-point  16 :   0.0000 0.3947 0.0000  plane waves:    1378
 k-point  17 :   0.0000 0.4211 0.0000  plane waves:    1382
 k-point  18 :   0.0000 0.4474 0.0000  plane waves:    1380
 k-point  19 :   0.0000 0.4737 0.0000  plane waves:    1376
 k-point  20 :   0.0000 0.5000 0.0000  plane waves:    1380
 k-point  21 :   0.0000 0.5000 0.0000  plane waves:    1380
 k-point  22 :   0.0263 0.5000 0.0000  plane waves:    1378
 k-point  23 :   0.0526 0.5000 0.0000  plane waves:    1370
 k-point  24 :   0.0789 0.5000 0.0000  plane waves:    1378
 k-point  25 :   0.1053 0.5000 0.0000  plane waves:    1378
 k-point  26 :   0.1316 0.5000 0.0000  plane waves:    1380
 k-point  27 :   0.1579 0.5000 0.0000  plane waves:    1392
 k-point  28 :   0.1842 0.5000 0.0000  plane waves:    1396
 k-point  29 :   0.2105 0.5000 0.0000  plane waves:    1396
 k-point  30 :   0.2368 0.5000 0.0000  plane waves:    1394
 k-point  31 :   0.2632 0.5000 0.0000  plane waves:    1390
 k-point  32 :   0.2895 0.5000 0.0000  plane waves:    1398
 k-point  33 :   0.3158 0.5000 0.0000  plane waves:    1400
 k-point  34 :   0.3421 0.5000 0.0000  plane waves:    1396
 k-point  35 :   0.3684 0.5000 0.0000  plane waves:    1390
 k-point  36 :   0.3947 0.5000 0.0000  plane waves:    1392
 k-point  37 :   0.4211 0.5000 0.0000  plane waves:    1388
 k-point  38 :   0.4474 0.5000 0.0000  plane waves:    1388
 k-point  39 :   0.4737 0.5000 0.0000  plane waves:    1380
 k-point  40 :   0.5000 0.5000 0.0000  plane waves:    1400
 k-point  41 :   0.5000 0.5000 0.0000  plane waves:    1400
 k-point  42 :   0.4737 0.4737 0.0000  plane waves:    1376
 k-point  43 :   0.4474 0.4474 0.0000  plane waves:    1384
 k-point  44 :   0.4211 0.4211 0.0000  plane waves:    1390
 k-point  45 :   0.3947 0.3947 0.0000  plane waves:    1386
 k-point  46 :   0.3684 0.3684 0.0000  plane waves:    1392
 k-point  47 :   0.3421 0.3421 0.0000  plane waves:    1396
 k-point  48 :   0.3158 0.3158 0.0000  plane waves:    1393
 k-point  49 :   0.2895 0.2895 0.0000  plane waves:    1395
 k-point  50 :   0.2632 0.2632 0.0000  plane waves:    1403
 k-point  51 :   0.2368 0.2368 0.0000  plane waves:    1399
 k-point  52 :   0.2105 0.2105 0.0000  plane waves:    1397
 k-point  53 :   0.1842 0.1842 0.0000  plane waves:    1399
 k-point  54 :   0.1579 0.1579 0.0000  plane waves:    1387
 k-point  55 :   0.1316 0.1316 0.0000  plane waves:    1385
 k-point  56 :   0.1053 0.1053 0.0000  plane waves:    1387
 k-point  57 :   0.0789 0.0789 0.0000  plane waves:    1395
 k-point  58 :   0.0526 0.0526 0.0000  plane waves:    1397
 k-point  59 :   0.0263 0.0263 0.0000  plane waves:    1397
 k-point  60 :   0.0000 0.0000 0.0000  plane waves:    1399
 k-point  61 :   0.0000 0.0000 0.0000  plane waves:    1399
 k-point  62 :   0.0000 0.0000 0.0263  plane waves:    1403
 k-point  63 :   0.0000 0.0000 0.0526  plane waves:    1399
 k-point  64 :   0.0000 0.0000 0.0789  plane waves:    1399
 k-point  65 :   0.0000 0.0000 0.1053  plane waves:    1395
 k-point  66 :   0.0000 0.0000 0.1316  plane waves:    1383
 k-point  67 :   0.0000 0.0000 0.1579  plane waves:    1383
 k-point  68 :   0.0000 0.0000 0.1842  plane waves:    1378
 k-point  69 :   0.0000 0.0000 0.2105  plane waves:    1378
 k-point  70 :   0.0000 0.0000 0.2368  plane waves:    1382
 k-point  71 :   0.0000 0.0000 0.2632  plane waves:    1382
 k-point  72 :   0.0000 0.0000 0.2895  plane waves:    1374
 k-point  73 :   0.0000 0.0000 0.3158  plane waves:    1374
 k-point  74 :   0.0000 0.0000 0.3421  plane waves:    1374
 k-point  75 :   0.0000 0.0000 0.3684  plane waves:    1366
 k-point  76 :   0.0000 0.0000 0.3947  plane waves:    1378
 k-point  77 :   0.0000 0.0000 0.4211  plane waves:    1378
 k-point  78 :   0.0000 0.0000 0.4474  plane waves:    1354
 k-point  79 :   0.0000 0.0000 0.4737  plane waves:    1362
 k-point  80 :   0.0000 0.0000 0.5000  plane waves:    1362
 k-point  81 :   0.0000 0.0000 0.5000  plane waves:    1362
 k-point  82 :   0.0000 0.0263 0.5000  plane waves:    1362
 k-point  83 :   0.0000 0.0526 0.5000  plane waves:    1362
 k-point  84 :   0.0000 0.0789 0.5000  plane waves:    1360
 k-point  85 :   0.0000 0.1053 0.5000  plane waves:    1372
 k-point  86 :   0.0000 0.1316 0.5000  plane waves:    1370
 k-point  87 :   0.0000 0.1579 0.5000  plane waves:    1366
 k-point  88 :   0.0000 0.1842 0.5000  plane waves:    1374
 k-point  89 :   0.0000 0.2105 0.5000  plane waves:    1382
 k-point  90 :   0.0000 0.2368 0.5000  plane waves:    1382
 k-point  91 :   0.0000 0.2632 0.5000  plane waves:    1382
 k-point  92 :   0.0000 0.2895 0.5000  plane waves:    1390
 k-point  93 :   0.0000 0.3158 0.5000  plane waves:    1390
 k-point  94 :   0.0000 0.3421 0.5000  plane waves:    1384
 k-point  95 :   0.0000 0.3684 0.5000  plane waves:    1388
 k-point  96 :   0.0000 0.3947 0.5000  plane waves:    1384
 k-point  97 :   0.0000 0.4211 0.5000  plane waves:    1380
 k-point  98 :   0.0000 0.4474 0.5000  plane waves:    1380
 k-point  99 :   0.0000 0.4737 0.5000  plane waves:    1388
 k-point 100 :   0.0000 0.5000 0.5000  plane waves:    1388
 k-point 101 :   0.0000 0.5000 0.5000  plane waves:    1388
 k-point 102 :   0.0263 0.5000 0.5000  plane waves:    1392
 k-point 103 :   0.0526 0.5000 0.5000  plane waves:    1392
 k-point 104 :   0.0789 0.5000 0.5000  plane waves:    1384
 k-point 105 :   0.1053 0.5000 0.5000  plane waves:    1388
 k-point 106 :   0.1316 0.5000 0.5000  plane waves:    1388
 k-point 107 :   0.1579 0.5000 0.5000  plane waves:    1392
 k-point 108 :   0.1842 0.5000 0.5000  plane waves:    1396
 k-point 109 :   0.2105 0.5000 0.5000  plane waves:    1404
 k-point 110 :   0.2368 0.5000 0.5000  plane waves:    1404
 k-point 111 :   0.2632 0.5000 0.5000  plane waves:    1404
 k-point 112 :   0.2895 0.5000 0.5000  plane waves:    1408
 k-point 113 :   0.3158 0.5000 0.5000  plane waves:    1412
 k-point 114 :   0.3421 0.5000 0.5000  plane waves:    1408
 k-point 115 :   0.3684 0.5000 0.5000  plane waves:    1412
 k-point 116 :   0.3947 0.5000 0.5000  plane waves:    1416
 k-point 117 :   0.4211 0.5000 0.5000  plane waves:    1420
 k-point 118 :   0.4474 0.5000 0.5000  plane waves:    1428
 k-point 119 :   0.4737 0.5000 0.5000  plane waves:    1428
 k-point 120 :   0.5000 0.5000 0.5000  plane waves:    1432
 k-point 121 :   0.5000 0.5000 0.5000  plane waves:    1432
 k-point 122 :   0.4737 0.4737 0.5000  plane waves:    1428
 k-point 123 :   0.4474 0.4474 0.5000  plane waves:    1416
 k-point 124 :   0.4211 0.4211 0.5000  plane waves:    1418
 k-point 125 :   0.3947 0.3947 0.5000  plane waves:    1410
 k-point 126 :   0.3684 0.3684 0.5000  plane waves:    1410
 k-point 127 :   0.3421 0.3421 0.5000  plane waves:    1396
 k-point 128 :   0.3158 0.3158 0.5000  plane waves:    1396
 k-point 129 :   0.2895 0.2895 0.5000  plane waves:    1400
 k-point 130 :   0.2632 0.2632 0.5000  plane waves:    1396
 k-point 131 :   0.2368 0.2368 0.5000  plane waves:    1392
 k-point 132 :   0.2105 0.2105 0.5000  plane waves:    1386
 k-point 133 :   0.1842 0.1842 0.5000  plane waves:    1386
 k-point 134 :   0.1579 0.1579 0.5000  plane waves:    1384
 k-point 135 :   0.1316 0.1316 0.5000  plane waves:    1380
 k-point 136 :   0.1053 0.1053 0.5000  plane waves:    1380
 k-point 137 :   0.0789 0.0789 0.5000  plane waves:    1376
 k-point 138 :   0.0526 0.0526 0.5000  plane waves:    1360
 k-point 139 :   0.0263 0.0263 0.5000  plane waves:    1362
 k-point 140 :   0.0000 0.0000 0.5000  plane waves:    1362
 k-point 141 :   0.0000 0.5000 0.0000  plane waves:    1380
 k-point 142 :   0.0000 0.5000 0.0263  plane waves:    1374
 k-point 143 :   0.0000 0.5000 0.0526  plane waves:    1374
 k-point 144 :   0.0000 0.5000 0.0789  plane waves:    1372
 k-point 145 :   0.0000 0.5000 0.1053  plane waves:    1382
 k-point 146 :   0.0000 0.5000 0.1316  plane waves:    1374
 k-point 147 :   0.0000 0.5000 0.1579  plane waves:    1380
 k-point 148 :   0.0000 0.5000 0.1842  plane waves:    1382
 k-point 149 :   0.0000 0.5000 0.2105  plane waves:    1390
 k-point 150 :   0.0000 0.5000 0.2368  plane waves:    1382
 k-point 151 :   0.0000 0.5000 0.2632  plane waves:    1384
 k-point 152 :   0.0000 0.5000 0.2895  plane waves:    1390
 k-point 153 :   0.0000 0.5000 0.3158  plane waves:    1402
 k-point 154 :   0.0000 0.5000 0.3421  plane waves:    1394
 k-point 155 :   0.0000 0.5000 0.3684  plane waves:    1392
 k-point 156 :   0.0000 0.5000 0.3947  plane waves:    1388
 k-point 157 :   0.0000 0.5000 0.4211  plane waves:    1388
 k-point 158 :   0.0000 0.5000 0.4474  plane waves:    1392
 k-point 159 :   0.0000 0.5000 0.4737  plane waves:    1388
 k-point 160 :   0.0000 0.5000 0.5000  plane waves:    1388
 k-point 161 :   0.5000 0.5000 0.0000  plane waves:    1400
 k-point 162 :   0.5000 0.5000 0.0263  plane waves:    1380
 k-point 163 :   0.5000 0.5000 0.0526  plane waves:    1388
 k-point 164 :   0.5000 0.5000 0.0789  plane waves:    1376
 k-point 165 :   0.5000 0.5000 0.1053  plane waves:    1384
 k-point 166 :   0.5000 0.5000 0.1316  plane waves:    1384
 k-point 167 :   0.5000 0.5000 0.1579  plane waves:    1400
 k-point 168 :   0.5000 0.5000 0.1842  plane waves:    1392
 k-point 169 :   0.5000 0.5000 0.2105  plane waves:    1408
 k-point 170 :   0.5000 0.5000 0.2368  plane waves:    1408
 k-point 171 :   0.5000 0.5000 0.2632  plane waves:    1404
 k-point 172 :   0.5000 0.5000 0.2895  plane waves:    1404
 k-point 173 :   0.5000 0.5000 0.3158  plane waves:    1404
 k-point 174 :   0.5000 0.5000 0.3421  plane waves:    1404
 k-point 175 :   0.5000 0.5000 0.3684  plane waves:    1408
 k-point 176 :   0.5000 0.5000 0.3947  plane waves:    1408
 k-point 177 :   0.5000 0.5000 0.4211  plane waves:    1408
 k-point 178 :   0.5000 0.5000 0.4474  plane waves:    1416
 k-point 179 :   0.5000 0.5000 0.4737  plane waves:    1432
 k-point 180 :   0.5000 0.5000 0.5000  plane waves:    1432

 maximum and minimum number of plane-waves per node :      1432     1354

 maximum number of plane-waves:      1432
 maximum index in each direction: 
   IXMAX=    8   IYMAX=    8   IZMAX=    5
   IXMIN=   -8   IYMIN=   -8   IZMIN=   -5


 serial   3D FFT for wavefunctions
 parallel 3D FFT for charge:
    minimum data exchange during FFTs selected (reduces bandwidth)


 total amount of memory used by VASP MPI-rank0   232783. kBytes
=======================================================================

   base      :      30000. kBytes
   nonl-proj :      74372. kBytes
   fftplans  :       2668. kBytes
   grid      :       4690. kBytes
   one-center:         93. kBytes
   wavefun   :     120960. kBytes
 
     INWAV:  cpu time    0.1640: real time    0.1642
 initial charge density was supplied:
 number of electron      47.9999860 magnetization 
 keeping initial charge density in first step


--------------------------------------------------------------------------------------------------------


 Maximum index for augmentation-charges         5587 (set IRDMAX)


--------------------------------------------------------------------------------------------------------


 First call to EWALD:  gamma=   0.448
 Maximum number of real-space cells 2x 2x 4
 Maximum number of reciprocal cells 3x 3x 2

    FEWALD:  cpu time    0.0012: real time    0.0012


--------------------------------------- Iteration      1(   1)  ---------------------------------------


    POTLOK:  cpu time    0.0301: real time    0.0534
    SETDIJ:  cpu time    0.0062: real time    0.0062
     EDDAV:  cpu time    4.7239: real time    4.7247
       DOS:  cpu time    0.0013: real time    0.0013
    --------------------------------------------
      LOOP:  cpu time    4.7615: real time    4.7856

 eigenvalue-minimisations  : 14032
 total energy-change (2. order) :-0.4391584E+02  (-0.5997030E+02)
 number of electron      47.9999860 magnetization 
 augmentation part       47.9999860 magnetization 

 Free energy of the ion-electron system (eV)
  ---------------------------------------------------
  alpha Z        PSCENC =       184.33841299
  Ewald energy   TEWEN  =     -3605.32907450
  -Hartree energ DENC   =     -1224.17587072
  -exchange      EXHF   =         0.00000000
  -V(xc)+E(xc)   XCENC  =       236.18856659
  PAW double counting   =      7133.72201308    -7106.42037558
  entropy T*S    EENTRO =        -0.00000000
  eigenvalues    EBANDS =      -567.87876570
  atomic energy  EATOM  =      4905.63925112
  Solvation  Ediel_sol  =         0.00000000
  ---------------------------------------------------
  free energy    TOTEN  =       -43.91584270 eV

  energy without entropy =      -43.91584270  energy(sigma->0) =      -43.91584270


--------------------------------------------------------------------------------------------------------




--------------------------------------- Iteration      1(   2)  ---------------------------------------


     EDDAV:  cpu time    3.7996: real time    3.8021
       DOS:  cpu time    0.0011: real time    0.0011
    --------------------------------------------
      LOOP:  cpu time    3.8007: real time    3.8032

 eigenvalue-minimisations  : 10700
 total energy-change (2. order) :-0.8955773E+01  (-0.8932837E+01)
 number of electron      47.9999860 magnetization 
 augmentation part       47.9999860 magnetization 

 Free energy of the ion-electron system (eV)
  ---------------------------------------------------
  alpha Z        PSCENC =       184.33841299
  Ewald energy   TEWEN  =     -3605.32907450
  -Hartree energ DENC   =     -1224.17587072
  -exchange      EXHF   =         0.00000000
  -V(xc)+E(xc)   XCENC  =       236.18856659
  PAW double counting   =      7133.72201308    -7106.42037558
  entropy T*S    EENTRO =        -0.00000000
  eigenvalues    EBANDS =      -576.83453879
  atomic energy  EATOM  =      4905.63925112
  Solvation  Ediel_sol  =         0.00000000
  ---------------------------------------------------
  free energy    TOTEN  =       -52.87161579 eV

  energy without entropy =      -52.87161579  energy(sigma->0) =      -52.87161579


--------------------------------------------------------------------------------------------------------




--------------------------------------- Iteration      1(   3)  ---------------------------------------


     EDDAV:  cpu time    4.6821: real time    4.6824
       DOS:  cpu time    0.0011: real time    0.0011
    --------------------------------------------
      LOOP:  cpu time    4.6832: real time    4.6835

 eigenvalue-minimisations  : 13956
 total energy-change (2. order) :-0.3016402E+00  (-0.3014145E+00)
 number of electron      47.9999860 magnetization 
 augmentation part       47.9999860 magnetization 

 Free energy of the ion-electron system (eV)
  ---------------------------------------------------
  alpha Z        PSCENC =       184.33841299
  Ewald energy   TEWEN  =     -3605.32907450
  -Hartree energ DENC   =     -1224.17587072
  -exchange      EXHF   =         0.00000000
  -V(xc)+E(xc)   XCENC  =       236.18856659
  PAW double counting   =      7133.72201308    -7106.42037558
  entropy T*S    EENTRO =        -0.00000000
  eigenvalues    EBANDS =      -577.13617902
  atomic energy  EATOM  =      4905.63925112
  Solvation  Ediel_sol  =         0.00000000
  ---------------------------------------------------
  free energy    TOTEN  =       -53.17325602 eV

  energy without entropy =      -53.17325602  energy(sigma->0) =      -53.17325602


--------------------------------------------------------------------------------------------------------




--------------------------------------- Iteration      1(   4)  ---------------------------------------


     EDDAV:  cpu time    4.3441: real time    4.3443
       DOS:  cpu time    0.0011: real time    0.0011
    --------------------------------------------
      LOOP:  cpu time    4.3452: real time    4.3454

 eigenvalue-minimisations  : 12744
 total energy-change (2. order) :-0.6593844E-02  (-0.6586116E-02)
 number of electron      47.9999860 magnetization 
 augmentation part       47.9999860 magnetization 

 Free energy of the ion-electron system (eV)
  ---------------------------------------------------
  alpha Z        PSCENC =       184.33841299
  Ewald energy   TEWEN  =     -3605.32907450
  -Hartree energ DENC   =     -1224.17587072
  -exchange      EXHF   =         0.00000000
  -V(xc)+E(xc)   XCENC  =       236.18856659
  PAW double counting   =      7133.72201308    -7106.42037558
  entropy T*S    EENTRO =        -0.00000000
  eigenvalues    EBANDS =      -577.14277287
  atomic energy  EATOM  =      4905.63925112
  Solvation  Ediel_sol  =         0.00000000
  ---------------------------------------------------
  free energy    TOTEN  =       -53.17984987 eV

  energy without entropy =      -53.17984987  energy(sigma->0) =      -53.17984987


--------------------------------------------------------------------------------------------------------




--------------------------------------- Iteration      1(   5)  ---------------------------------------


     EDDAV:  cpu time    4.5563: real time    4.5568
       DOS:  cpu time    0.0012: real time    0.0012
    --------------------------------------------
      LOOP:  cpu time    4.5575: real time    4.5580

 eigenvalue-minimisations  : 13552
 total energy-change (2. order) :-0.1106535E-03  (-0.1105829E-03)
 number of electron      47.9999860 magnetization 
 augmentation part       47.9999860 magnetization 

 Free energy of the ion-electron system (eV)
  ---------------------------------------------------
  alpha Z        PSCENC =       184.33841299
  Ewald energy   TEWEN  =     -3605.32907450
  -Hartree energ DENC   =     -1224.17587072
  -exchange      EXHF   =         0.00000000
  -V(xc)+E(xc)   XCENC  =       236.18856659
  PAW double counting   =      7133.72201308    -7106.42037558
  entropy T*S    EENTRO =        -0.00000000
  eigenvalues    EBANDS =      -577.14288352
  atomic energy  EATOM  =      4905.63925112
  Solvation  Ediel_sol  =         0.00000000
  ---------------------------------------------------
  free energy    TOTEN  =       -53.17996052 eV

  energy without entropy =      -53.17996052  energy(sigma->0) =      -53.17996052


--------------------------------------------------------------------------------------------------------




--------------------------------------- Iteration      1(   6)  ---------------------------------------


     EDDAV:  cpu time    3.2151: real time    3.2168
       DOS:  cpu time    0.0011: real time    0.0011
    --------------------------------------------
      LOOP:  cpu time    3.2162: real time    3.2178

 eigenvalue-minimisations  :  8468
 total energy-change (2. order) :-0.1583432E-05  (-0.1583137E-05)
 number of electron      47.9999860 magnetization 
 augmentation part       47.9999860 magnetization 

 Free energy of the ion-electron system (eV)
  ---------------------------------------------------
  alpha Z        PSCENC =       184.33841299
  Ewald energy   TEWEN  =     -3605.32907450
  -Hartree energ DENC   =     -1224.17587072
  -exchange      EXHF   =         0.00000000
  -V(xc)+E(xc)   XCENC  =       236.18856659
  PAW double counting   =      7133.72201308    -7106.42037558
  entropy T*S    EENTRO =        -0.00000000
  eigenvalues    EBANDS =      -577.14288510
  atomic energy  EATOM  =      4905.63925112
  Solvation  Ediel_sol  =         0.00000000
  ---------------------------------------------------
  free energy    TOTEN  =       -53.17996210 eV

  energy without entropy =      -53.17996210  energy(sigma->0) =      -53.17996210


--------------------------------------------------------------------------------------------------------




 average (electrostatic) potential at core
  the test charge radii are     1.0397  0.8742
[...]
     14       0.3718      2.00000
     15       0.5795      2.00000
     16       0.5795      2.00000
     17       2.3839      2.00000
     18       2.3839      2.00000
     19       3.2733      2.00000
     20       3.2733      2.00000
     21       3.5136      2.00000
     22       3.5136      2.00000
     23       3.9861      2.00000
     24       3.9861      2.00000
     25       8.0098      0.00000
     26       8.0099      0.00000
     27       8.1884      0.00000
     28       8.1884      0.00000

 k-point   172 :       0.5000    0.5000    0.2895
  band No.  band energies     occupation 
      1     -51.6013      2.00000
      2     -51.6013      2.00000
      3     -28.0091      2.00000
      4     -28.0091      2.00000
      5     -27.8791      2.00000
      6     -27.8791      2.00000
      7     -27.7661      2.00000
      8     -27.7661      2.00000
      9     -11.7183      2.00000
     10     -11.7183      2.00000
     11     -11.4625      2.00000
     12     -11.4625      2.00000
     13       0.4658      2.00000
     14       0.4658      2.00000
     15       0.5436      2.00000
     16       0.5436      2.00000
     17       2.2076      2.00000
     18       2.2076      2.00000
     19       3.1567      2.00000
     20       3.1567      2.00000
     21       3.5877      2.00000
     22       3.5877      2.00000
     23       4.1123      2.00000
     24       4.1123      2.00000
     25       8.1039      0.00000
     26       8.1041      0.00000
     27       8.2438      0.00000
     28       8.2438      0.00000

 k-point   173 :       0.5000    0.5000    0.3158
  band No.  band energies     occupation 
      1     -51.5981      2.00000
      2     -51.5981      2.00000
      3     -28.0441      2.00000
      4     -28.0441      2.00000
      5     -27.8673      2.00000
      6     -27.8673      2.00000
      7     -27.7668      2.00000
      8     -27.7668      2.00000
      9     -11.6465      2.00000
     10     -11.6465      2.00000
     11     -11.4998      2.00000
     12     -11.4998      2.00000
     13       0.5197      2.00000
     14       0.5197      2.00000
     15       0.5486      2.00000
     16       0.5486      2.00000
     17       2.0545      2.00000
     18       2.0545      2.00000
     19       3.0365      2.00000
     20       3.0365      2.00000
     21       3.6618      2.00000
     22       3.6618      2.00000
     23       4.2297      2.00000
     24       4.2297      2.00000
     25       8.1915      0.00000
     26       8.2960      0.00000
     27       8.2963      0.00000
     28       8.3196      0.00000

 k-point   174 :       0.5000    0.5000    0.3421
  band No.  band energies     occupation 
      1     -51.5951      2.00000
      2     -51.5951      2.00000
      3     -28.0764      2.00000
      4     -28.0764      2.00000
      5     -27.8556      2.00000
      6     -27.8556      2.00000
      7     -27.7681      2.00000
      8     -27.7681      2.00000
      9     -11.5793      2.00000
     10     -11.5793      2.00000
     11     -11.5344      2.00000
     12     -11.5344      2.00000
     13       0.5061      2.00000
     14       0.5061      2.00000
     15       0.6148      2.00000
     16       0.6148      2.00000
     17       1.9299      2.00000
     18       1.9299      2.00000
     19       2.9197      2.00000
     20       2.9197      2.00000
     21       3.7337      2.00000
     22       3.7337      2.00000
     23       4.3336      2.00000
     24       4.3336      2.00000
     25       8.2233      0.00000
     26       8.2233      0.00000
     27       8.3430      0.00000
     28       8.3435      0.00000

 k-point   175 :       0.5000    0.5000    0.3684
  band No.  band energies     occupation 
      1     -51.5924      2.00000
      2     -51.5924      2.00000
      3     -28.1053      2.00000
      4     -28.1053      2.00000
      5     -27.8444      2.00000
      6     -27.8444      2.00000
      7     -27.7700      2.00000
      8     -27.7700      2.00000
      9     -11.5654      2.00000
     10     -11.5654      2.00000
     11     -11.5187      2.00000
     12     -11.5187      2.00000
     13       0.5010      2.00000
     14       0.5010      2.00000
     15       0.6604      2.00000
     16       0.6604      2.00000
     17       1.8370      2.00000
     18       1.8370      2.00000
     19       2.8111      2.00000
     20       2.8111      2.00000
     21       3.8009      2.00000
     22       3.8009      2.00000
     23       4.4220      2.00000
     24       4.4220      2.00000
     25       8.1341      0.00000
     26       8.1341      0.00000
     27       8.3866      0.00000
     28       8.3870      0.00000

 k-point   176 :       0.5000    0.5000    0.3947
  band No.  band energies     occupation 
      1     -51.5901      2.00000
      2     -51.5901      2.00000
      3     -28.1300      2.00000
      4     -28.1300      2.00000
      5     -27.8337      2.00000
      6     -27.8337      2.00000
      7     -27.7726      2.00000
      8     -27.7726      2.00000
      9     -11.5921      2.00000
     10     -11.5921      2.00000
     11     -11.4664      2.00000
     12     -11.4664      2.00000
     13       0.5020      2.00000
     14       0.5020      2.00000
     15       0.6847      2.00000
     16       0.6847      2.00000
     17       1.7762      2.00000
     18       1.7762      2.00000
     19       2.7151      2.00000
     20       2.7151      2.00000
     21       3.8607      2.00000
     22       3.8607      2.00000
     23       4.4942      2.00000
     24       4.4942      2.00000
     25       8.0553      0.00000
     26       8.0553      0.00000
     27       8.4241      0.00000
     28       8.4242      0.00000

 k-point   177 :       0.5000    0.5000    0.4211
  band No.  band energies     occupation 
      1     -51.5883      2.00000
      2     -51.5883      2.00000
      3     -28.1498      2.00000
      4     -28.1498      2.00000
      5     -27.8239      2.00000
      6     -27.8239      2.00000
      7     -27.7759      2.00000
      8     -27.7759      2.00000
      9     -11.6137      2.00000
     10     -11.6137      2.00000
     11     -11.4240      2.00000
     12     -11.4240      2.00000
     13       0.5066      2.00000
     14       0.5066      2.00000
     15       0.6916      2.00000
     16       0.6916      2.00000
     17       1.7422      2.00000
     18       1.7422      2.00000
     19       2.6354      2.00000
     20       2.6354      2.00000
     21       3.9107      2.00000
     22       3.9107      2.00000
     23       4.5500      2.00000
     24       4.5500      2.00000
     25       7.9899      0.00000
     26       7.9899      0.00000
     27       8.4539      0.00000
     28       8.4539      0.00000

 k-point   178 :       0.5000    0.5000    0.4474
  band No.  band energies     occupation 
      1     -51.5870      2.00000
      2     -51.5870      2.00000
      3     -28.1643      2.00000
      4     -28.1643      2.00000
      5     -27.8153      2.00000
      6     -27.8153      2.00000
      7     -27.7797      2.00000
      8     -27.7797      2.00000
      9     -11.6295      2.00000
     10     -11.6295      2.00000
     11     -11.3927      2.00000
     12     -11.3927      2.00000
     13       0.5122      2.00000
     14       0.5122      2.00000
     15       0.6883      2.00000
     16       0.6883      2.00000
     17       1.7268      2.00000
     18       1.7268      2.00000
     19       2.5755      2.00000
     20       2.5755      2.00000
     21       3.9484      2.00000
     22       3.9484      2.00000
     23       4.5896      2.00000
     24       4.5896      2.00000
     25       7.9408      0.00000
     26       7.9408      0.00000
     27       8.4756      0.00000
     28       8.4757      0.00000

 k-point   179 :       0.5000    0.5000    0.4737
  band No.  band energies     occupation 
      1     -51.5862      2.00000
      2     -51.5862      2.00000
      3     -28.1732      2.00000
      4     -28.1732      2.00000
      5     -27.8087      2.00000
      6     -27.8087      2.00000
      7     -27.7834      2.00000
      8     -27.7834      2.00000
      9     -11.6392      2.00000
     10     -11.6392      2.00000
     11     -11.3735      2.00000
     12     -11.3735      2.00000
     13       0.5166      2.00000
     14       0.5166      2.00000
     15       0.6826      2.00000
     16       0.6826      2.00000
     17       1.7214      2.00000
     18       1.7214      2.00000
     19       2.5382      2.00000
     20       2.5382      2.00000
     21       3.9718      2.00000
     22       3.9718      2.00000
     23       4.6131      2.00000
     24       4.6131      2.00000
     25       7.9102      0.00000
     26       7.9102      0.00000
     27       8.4888      0.00000
     28       8.4889      0.00000

 k-point   180 :       0.5000    0.5000    0.5000
  band No.  band energies     occupation 
      1     -51.5859      2.00000
      2     -51.5859      2.00000
      3     -28.1762      2.00000
      4     -28.1762      2.00000
      5     -27.8060      2.00000
      6     -27.8060      2.00000
      7     -27.7852      2.00000
      8     -27.7852      2.00000
      9     -11.6424      2.00000
     10     -11.6424      2.00000
     11     -11.3670      2.00000
     12     -11.3670      2.00000
     13       0.5183      2.00000
     14       0.5183      2.00000
     15       0.6801      2.00000
     16       0.6801      2.00000
     17       1.7203      2.00000
     18       1.7203      2.00000
     19       2.5255      2.00000
     20       2.5255      2.00000
     21       3.9798      2.00000
     22       3.9798      2.00000
     23       4.6209      2.00000
     24       4.6209      2.00000
     25       7.8999      0.00000
     26       7.8999      0.00000
     27       8.4933      0.00000
     28       8.4934      0.00000


--------------------------------------------------------------------------------------------------------


 soft charge-density along one line, spin component           1
         0         1         2         3         4         5         6         7         8         9
 total charge-density along one line
 
 pseudopotential strength for first ion, spin component:           1
 -3.441 -21.329  -0.000   0.000   0.000   0.000  -0.000  -0.000
-21.329   9.123  -0.000   0.000   0.000  -0.000   0.000   0.000
 -0.000  -0.000 -24.520  -0.000   0.006   8.539   0.000  -0.004
  0.000   0.000  -0.000 -24.537  -0.000   0.000   8.548   0.000
  0.000   0.000   0.006  -0.000 -24.520  -0.004   0.000   8.539
  0.000  -0.000   8.539   0.000  -0.004   5.874  -0.000   0.001
 -0.000   0.000   0.000   8.548   0.000  -0.000   5.872  -0.000
 -0.000   0.000  -0.004   0.000   8.539   0.001  -0.000   5.874
  0.004   0.002   0.000  -0.000  -0.000  -0.000   0.000   0.000
 -0.000  -0.000   0.000  -0.000  -0.000  -0.000   0.000   0.000
 -0.008  -0.001   0.000   0.000  -0.000  -0.000  -0.000   0.000
 -0.000  -0.000  -0.000   0.000   0.000   0.000  -0.000  -0.000
 -0.000  -0.000   0.000   0.000   0.000  -0.000  -0.000  -0.000
  0.005   0.002   0.000  -0.000  -0.000  -0.000   0.000   0.000
 -0.000  -0.000   0.000  -0.000  -0.000  -0.000   0.000   0.000
 -0.010  -0.002   0.000   0.000  -0.000  -0.000  -0.000   0.000
 -0.000  -0.000  -0.000   0.000   0.000   0.000  -0.000  -0.000
 -0.000  -0.000   0.000   0.000   0.000  -0.000  -0.000  -0.000
 total augmentation occupancy for first ion, spin component:           1
  2.000   0.000   0.000   0.000   0.000   0.000   0.000   0.000   0.000   0.000   0.000   0.000   0.000   0.000   0.000   0.000
  0.000   1.000   0.000   0.000   0.000   0.000   0.000   0.000   0.000   0.000   0.000   0.000   0.000   0.000   0.000   0.000
  0.000   0.000   2.000   0.000   0.000   0.000   0.000   0.000   0.000   0.000   0.000   0.000   0.000   0.000   0.000   0.000
  0.000   0.000   0.000   2.000   0.000   0.000   0.000   0.000   0.000   0.000   0.000   0.000   0.000   0.000   0.000   0.000
  0.000   0.000   0.000   0.000   2.000   0.000   0.000   0.000   0.000   0.000   0.000   0.000   0.000   0.000   0.000   0.000
  0.000   0.000   0.000   0.000   0.000   0.000   0.000   0.000   0.000   0.000   0.000   0.000   0.000   0.000   0.000   0.000
  0.000   0.000   0.000   0.000   0.000   0.000   0.000   0.000   0.000   0.000   0.000   0.000   0.000   0.000   0.000   0.000
  0.000   0.000   0.000   0.000   0.000   0.000   0.000   0.000   0.000   0.000   0.000   0.000   0.000   0.000   0.000   0.000
  0.000   0.000   0.000   0.000   0.000   0.000   0.000   0.000   0.600   0.000   0.000   0.000   0.000   0.000   0.000   0.000
  0.000   0.000   0.000   0.000   0.000   0.000   0.000   0.000   0.000   0.600   0.000   0.000   0.000   0.000   0.000   0.000
  0.000   0.000   0.000   0.000   0.000   0.000   0.000   0.000   0.000   0.000   0.600   0.000   0.000   0.000   0.000   0.000
  0.000   0.000   0.000   0.000   0.000   0.000   0.000   0.000   0.000   0.000   0.000   0.600   0.000   0.000   0.000   0.000
  0.000   0.000   0.000   0.000   0.000   0.000   0.000   0.000   0.000   0.000   0.000   0.000   0.600   0.000   0.000   0.000
  0.000   0.000   0.000   0.000   0.000   0.000   0.000   0.000   0.000   0.000   0.000   0.000   0.000   0.000   0.000   0.000
  0.000   0.000   0.000   0.000   0.000   0.000   0.000   0.000   0.000   0.000   0.000   0.000   0.000   0.000   0.000   0.000
  0.000   0.000   0.000   0.000   0.000   0.000   0.000   0.000   0.000   0.000   0.000   0.000   0.000   0.000   0.000   0.000
  0.000   0.000   0.000   0.000   0.000   0.000   0.000   0.000   0.000   0.000   0.000   0.000   0.000   0.000   0.000   0.000
  0.000   0.000   0.000   0.000   0.000   0.000   0.000   0.000   0.000   0.000   0.000   0.000   0.000   0.000   0.000   0.000


------------------------ aborting loop because EDIFF is reached ----------------------------------------


    CHARGE:  cpu time    0.2382: real time    0.2382
    FORLOC:  cpu time    0.0029: real time    0.0029
    FORNL :  cpu time    2.0122: real time    2.0130
    STRESS:  cpu time    3.4578: real time    3.4595
    FORCOR:  cpu time    0.0208: real time    0.0208
    FORHAR:  cpu time    0.0058: real time    0.0058
    OFIELD:  cpu time    0.0001: real time    0.0001

  FORCE on cell =-STRESS in cart. coord.  units (eV):
  Direction    XX          YY          ZZ          XY          YZ          ZX
  --------------------------------------------------------------------------------------
  Alpha Z   184.33841   184.33841   184.33841
  Ewald   -1386.37292 -1386.37292  -832.58596     0.00000     0.00000     0.00000
  Hartree   302.29695   302.29695   616.20158    -0.00000    -0.00000    -0.00000
  E(xc)    -246.74649  -246.74649  -246.06349     0.00000    -0.00000    -0.00000
  Local      80.87665    80.87665  -776.57189    -0.00000     0.00000    -0.00000
  n-local    21.35477    19.77074    15.93122    -0.35172    -0.00006     0.00006
  augment   292.80030   292.80030   293.02768    -0.00000    -0.00000     0.00000
  Kinetic   755.46128   758.39066   751.04100     0.06606     0.00000     0.00002
  Fock        0.00000     0.00000     0.00000     0.00000     0.00000     0.00000
  -------------------------------------------------------------------------------------
  Total       4.68163     4.68163     5.31856    -0.00000     0.00000     0.00000
  in kB     120.88017   120.88017   137.32574    -0.00000     0.00000     0.00000
  external pressure =      126.36 kB  Pullay stress =        0.00 kB


 VOLUME and BASIS-vectors are now :
 -----------------------------------------------------------------------------
  energy-cutoff  :      460.00
  volume of cell :       62.05
      direct lattice vectors                 reciprocal lattice vectors
     4.584000000  0.000000000  0.000000000     0.218150087  0.000000000  0.000000000
     0.000000000  4.584000000  0.000000000     0.000000000  0.218150087  0.000000000
     0.000000000  0.000000000  2.953000000     0.000000000  0.000000000  0.338638673

  length of vectors
     4.584000000  4.584000000  2.953000000     0.218150087  0.218150087  0.338638673


 FORCES acting on ions
    electron-ion (+dipol)            ewald-force                    non-local-force                 convergence-correction
 -----------------------------------------------------------------------------------------------
   -.456E-13 -.457E-13 -.547E-13   0.853E-13 0.568E-13 0.110E-13   0.468E-24 -.144E-22 0.367E-22   0.608E-12 -.277E-11 0.113E-12
   0.249E-11 -.157E-11 -.197E-11   -.568E-13 0.000E+00 0.128E-13   0.988E-23 0.212E-23 0.615E-22   0.370E-11 0.405E-12 0.503E-12
   -.414E+02 0.414E+02 0.971E-12   0.454E+02 -.454E+02 -.972E-14   -.369E+01 0.369E+01 0.158E-21   -.218E+00 0.218E+00 -.134E-11
   0.414E+02 -.414E+02 -.418E-11   -.454E+02 0.454E+02 -.920E-14   0.369E+01 -.369E+01 0.161E-21   0.218E+00 -.218E+00 0.272E-11
   0.414E+02 0.414E+02 -.161E-05   -.454E+02 -.454E+02 -.805E-14   0.369E+01 0.369E+01 -.317E-21   0.218E+00 0.218E+00 -.424E-13
   -.414E+02 -.414E+02 0.161E-05   0.454E+02 0.454E+02 -.767E-14   -.369E+01 -.369E+01 -.275E-21   -.218E+00 -.218E+00 -.146E-11
 -----------------------------------------------------------------------------------------------
   0.266E-11 -.178E-11 -.452E-11   -.711E-14 -.711E-14 -.108E-13   0.000E+00 0.000E+00 -.175E-21   0.420E-11 -.186E-12 0.495E-12
 
 
 POSITION                                       TOTAL-FORCE (eV/Angst)
 -----------------------------------------------------------------------------------
      0.00000      0.00000      0.00000         0.000000      0.000000      0.000000
      2.29200      2.29200      1.47650        -0.000000     -0.000000      0.000000
      0.89942      3.68458      1.47650         0.157228     -0.157228     -0.000000
      3.68458      0.89942      1.47650        -0.157228      0.157228      0.000000
      1.39258      1.39258      0.00000        -0.157228     -0.157228     -0.000000
      3.19142      3.19142      0.00000         0.157228      0.157228      0.000000
 -----------------------------------------------------------------------------------
    total drift:                                0.000000     -0.000000     -0.000000


--------------------------------------------------------------------------------------------------------



  FREE ENERGIE OF THE ION-ELECTRON SYSTEM (eV)
  ---------------------------------------------------
  free  energy   TOTEN  =       -53.17996210 eV

  energy  without entropy=      -53.17996210  energy(sigma->0) =      -53.17996210
 


--------------------------------------------------------------------------------------------------------


    POTLOK:  cpu time    0.0244: real time    0.0244


--------------------------------------------------------------------------------------------------------


 writing wavefunctions
     LOOP+:  cpu time   31.3795: real time   32.7117
    4ORBIT:  cpu time    0.0000: real time    0.0000

 total amount of memory used by VASP MPI-rank0   232783. kBytes
=======================================================================

   base      :      30000. kBytes
   nonl-proj :      74372. kBytes
   fftplans  :       2668. kBytes
   grid      :       4690. kBytes
   one-center:         93. kBytes
   wavefun   :     120960. kBytes
 
  
  
 General timing and accounting informations for this job:
 ========================================================
  
                  Total CPU time used (sec):       32.610
                            User time (sec):       32.122
                          System time (sec):        0.488
                         Elapsed time (sec):       34.994
  
                   Maximum memory used (kb):      379856.
                   Average memory used (kb):          N/A
  
                          Minor page faults:        44870
                          Major page faults:          520
                 Voluntary context switches:         2774
