<?xml version="1.0" encoding="ISO-8859-1"?>
<modeling>
 <generator>
  <i name="program" type="string">vasp </i>
  <i name="version" type="string">6.2.0  </i>
  <i name="subversion" type="string">18Jan21 (build Oct 14 2021 17:49:53) complex                          parallel </i>
  <i name="platform" type="string">LinuxIFC </i>
  <i name="date" type="string">2022 04 02 </i>
  <i name="time" type="string">10:43:29 </i>
 </generator>
 <incar>
  <i type="string" name="SYSTEM">TiO2</i>
  <i type="int" name="ISTART">     1</i>
  <i type="int" name="ICHARG">    11</i>
  <i name="EDIFF">      0.00001000</i>
  <i name="ENCUT">    460.00000000</i>
  <i type="int" name="ISMEAR">     0</i>
  <i name="SIGMA">      0.01000000</i>
 </incar>
 <primitive_cell>
  <structure name="primitive_cell" >
   <crystal>
    <varray name="basis" >
     <v>       4.58400000       0.00000000       0.00000000 </v>
     <v>       0.00000000       4.58400000       0.00000000 </v>
     <v>       0.00000000       0.00000000       2.95300000 </v>
    </varray>
    <i name="volume">     62.05155437 </i>
    <varray name="rec_basis" >
     <v>       0.21815009       0.00000000       0.00000000 </v>
     <v>       0.00000000       0.21815009       0.00000000 </v>
     <v>       0.00000000       0.00000000       0.33863867 </v>
    </varray>
   </crystal>
   <varray name="positions" >
    <v>       0.00000000       0.00000000       0.00000000 </v>
    <v>       0.50000000       0.50000000       0.50000000 </v>
    <v>       0.19620933       0.80379067       0.50000000 </v>
    <v>       0.80379067       0.19620933       0.50000000 </v>
    <v>       0.30379067       0.30379067       0.00000000 </v>
    <v>       0.69620933       0.69620933       0.00000000 </v>
   </varray>
  </structure>
  <varray name="primitive_index" >
   <v type="int" >        1 </v>
   <v type="int" >        2 </v>
   <v type="int" >        3 </v>
   <v type="int" >        4 </v>
   <v type="int" >        5 </v>
   <v type="int" >        6 </v>
  </varray>
 </primitive_cell>
 <kpoints>
  <generation param="listgenerated">
   <i name="divisions" type="int">      20 </i>
   <v>       0.00000000       0.00000000       0.00000000 </v>
   <v>       0.00000000       0.50000000       0.00000000 </v>
   <v>       0.50000000       0.50000000       0.00000000 </v>
   <v>       0.00000000       0.00000000       0.00000000 </v>
   <v>       0.00000000       0.00000000       0.50000000 </v>
   <v>       0.00000000       0.50000000       0.50000000 </v>
   <v>       0.50000000       0.50000000       0.50000000 </v>
   <v>       0.00000000       0.50000000       0.00000000 </v>
   <v>       0.50000000       0.50000000       0.00000000 </v>
   <v>       0.50000000       0.50000000       0.50000000 </v>
  </generation>
  <varray name="kpointlist" >
   <v>       0.00000000       0.00000000       0.00000000 </v>
   <v>       0.00000000       0.02631579       0.00000000 </v>
   <v>       0.00000000       0.05263158       0.00000000 </v>
   <v>       0.00000000       0.07894737       0.00000000 </v>
   <v>       0.00000000       0.10526316       0.00000000 </v>
   <v>       0.00000000       0.13157895       0.00000000 </v>
   <v>       0.00000000       0.15789474       0.00000000 </v>
   <v>       0.00000000       0.18421053       0.00000000 </v>
   <v>       0.00000000       0.21052632       0.00000000 </v>
   <v>       0.00000000       0.23684211       0.00000000 </v>
   <v>       0.00000000       0.26315789       0.00000000 </v>
   <v>       0.00000000       0.28947368       0.00000000 </v>
   <v>       0.00000000       0.31578947       0.00000000 </v>
   <v>       0.00000000       0.34210526       0.00000000 </v>
   <v>       0.00000000       0.36842105       0.00000000 </v>
   <v>       0.00000000       0.39473684       0.00000000 </v>
   <v>       0.00000000       0.42105263       0.00000000 </v>
   <v>       0.00000000       0.44736842       0.00000000 </v>
   <v>       0.00000000       0.47368421       0.00000000 </v>
   <v>       0.00000000       0.50000000       0.00000000 </v>
   <v>       0.00000000       0.50000000       0.00000000 </v>
   <v>       0.02631579       0.50000000       0.00000000 </v>
   <v>       0.05263158       0.50000000       0.00000000 </v>
   <v>       0.07894737       0.50000000       0.00000000 </v>
   <v>       0.10526316       0.50000000       0.00000000 </v>
   <v>       0.13157895       0.50000000       0.00000000 </v>
   <v>       0.15789474       0.50000000       0.00000000 </v>
   <v>       0.18421053       0.50000000       0.00000000 </v>
   <v>       0.21052632       0.50000000       0.00000000 </v>
   <v>       0.23684211       0.50000000       0.00000000 </v>
   <v>       0.26315789       0.50000000       0.00000000 </v>
   <v>       0.28947368       0.50000000       0.00000000 </v>
   <v>       0.31578947       0.50000000       0.00000000 </v>
   <v>       0.34210526       0.50000000       0.00000000 </v>
   <v>       0.36842105       0.50000000       0.00000000 </v>
   <v>       0.39473684       0.50000000       0.00000000 </v>
   <v>       0.42105263       0.50000000       0.00000000 </v>
   <v>       0.44736842       0.50000000       0.00000000 </v>
   <v>       0.47368421       0.50000000       0.00000000 </v>
   <v>       0.50000000       0.50000000       0.00000000 </v>
   <v>       0.50000000       0.50000000       0.00000000 </v>
   <v>       0.47368421       0.47368421       0.00000000 </v>
   <v>       0.44736842       0.44736842       0.00000000 </v>
   <v>       0.42105263       0.42105263       0.00000000 </v>
   <v>       0.39473684       0.39473684       0.00000000 </v>
   <v>       0.36842105       0.36842105       0.00000000 </v>
   <v>       0.34210526       0.34210526       0.00000000 </v>
   <v>       0.31578947       0.31578947       0.00000000 </v>
   <v>       0.28947368       0.28947368       0.00000000 </v>
   <v>       0.26315789       0.26315789       0.00000000 </v>
   <v>       0.23684211       0.23684211       0.00000000 </v>
   <v>       0.21052632       0.21052632       0.00000000 </v>
   <v>       0.18421053       0.18421053       0.00000000 </v>
   <v>       0.15789474       0.15789474       0.00000000 </v>
   <v>       0.13157895       0.13157895       0.00000000 </v>
   <v>       0.10526316       0.10526316       0.00000000 </v>
   <v>       0.07894737       0.07894737       0.00000000 </v>
   <v>       0.05263158       0.05263158       0.00000000 </v>
   <v>       0.02631579       0.02631579       0.00000000 </v>
   <v>       0.00000000       0.00000000       0.00000000 </v>
   <v>       0.00000000       0.00000000       0.00000000 </v>
   <v>       0.00000000       0.00000000       0.02631579 </v>
   <v>       0.00000000       0.00000000       0.05263158 </v>
   <v>       0.00000000       0.00000000       0.07894737 </v>
   <v>       0.00000000       0.00000000       0.10526316 </v>
   <v>       0.00000000       0.00000000       0.13157895 </v>
   <v>       0.00000000       0.00000000       0.15789474 </v>
   <v>       0.00000000       0.00000000       0.18421053 </v>
   <v>       0.00000000       0.00000000       0.21052632 </v>
   <v>       0.00000000       0.00000000       0.23684211 </v>
   <v>       0.00000000       0.00000000       0.26315789 </v>
   <v>       0.00000000       0.00000000       0.28947368 </v>
   <v>       0.00000000       0.00000000       0.31578947 </v>
   <v>       0.00000000       0.00000000       0.34210526 </v>
   <v>       0.00000000       0.00000000       0.36842105 </v>
   <v>       0.00000000       0.00000000       0.39473684 </v>
   <v>       0.00000000       0.00000000       0.42105263 </v>
   <v>       0.00000000       0.00000000       0.44736842 </v>
   <v>       0.00000000       0.00000000       0.47368421 </v>
   <v>       0.00000000       0.00000000       0.50000000 </v>
   <v>       0.00000000       0.00000000       0.50000000 </v>
   <v>       0.00000000       0.02631579       0.50000000 </v>
   <v>       0.00000000       0.05263158       0.50000000 </v>
   <v>       0.00000000       0.07894737       0.50000000 </v>
   <v>       0.00000000       0.10526316       0.50000000 </v>
   <v>       0.00000000       0.13157895       0.50000000 </v>
   <v>       0.00000000       0.15789474       0.50000000 </v>
   <v>       0.00000000       0.18421053       0.50000000 </v>
   <v>       0.00000000       0.21052632       0.50000000 </v>
   <v>       0.00000000       0.23684211       0.50000000 </v>
   <v>       0.00000000       0.26315789       0.50000000 </v>
   <v>       0.00000000       0.28947368       0.50000000 </v>
   <v>       0.00000000       0.31578947       0.50000000 </v>
   <v>       0.00000000       0.34210526       0.50000000 </v>
   <v>       0.00000000       0.36842105       0.50000000 </v>
   <v>       0.00000000       0.39473684       0.50000000 </v>
   <v>       0.00000000       0.42105263       0.50000000 </v>
   <v>       0.00000000       0.44736842       0.50000000 </v>
   <v>       0.00000000       0.47368421       0.50000000 </v>
   <v>       0.00000000       0.50000000       0.50000000 </v>
   <v>       0.00000000       0.50000000       0.50000000 </v>
   <v>       0.02631579       0.50000000       0.50000000 </v>
   <v>       0.05263158       0.50000000       0.50000000 </v>
   <v>       0.07894737       0.50000000       0.50000000 </v>
   <v>       0.10526316       0.50000000       0.50000000 </v>
   <v>       0.13157895       0.50000000       0.50000000 </v>
   <v>       0.15789474       0.50000000       0.50000000 </v>
   <v>       0.18421053       0.50000000       0.50000000 </v>
   <v>       0.21052632       0.50000000       0.50000000 </v>
   <v>       0.23684211       0.50000000       0.50000000 </v>
   <v>       0.26315789       0.50000000       0.50000000 </v>
   <v>       0.28947368       0.50000000       0.50000000 </v>
   <v>       0.31578947       0.50000000       0.50000000 </v>
   <v>       0.34210526       0.50000000       0.50000000 </v>
   <v>       0.36842105       0.50000000       0.50000000 </v>
   <v>       0.39473684       0.50000000       0.50000000 </v>
   <v>       0.42105263       0.50000000       0.50000000 </v>
   <v>       0.44736842       0.50000000       0.50000000 </v>
   <v>       0.47368421       0.50000000       0.50000000 </v>
   <v>       0.50000000       0.50000000       0.50000000 </v>
   <v>       0.50000000       0.50000000       0.50000000 </v>
   <v>       0.47368421       0.47368421       0.50000000 </v>
   <v>       0.44736842       0.44736842       0.50000000 </v>
   <v>       0.42105263       0.42105263       0.50000000 </v>
   <v>       0.39473684       0.39473684       0.50000000 </v>
   <v>       0.36842105       0.36842105       0.50000000 </v>
   <v>       0.34210526       0.34210526       0.50000000 </v>
   <v>       0.31578947       0.31578947       0.50000000 </v>
   <v>       0.28947368       0.28947368       0.50000000 </v>
   <v>       0.26315789       0.26315789       0.50000000 </v>
   <v>       0.23684211       0.23684211       0.50000000 </v>
   <v>       0.21052632       0.21052632       0.50000000 </v>
   <v>       0.18421053       0.18421053       0.50000000 </v>
   <v>       0.15789474       0.15789474       0.50000000 </v>
   <v>       0.13157895       0.13157895       0.50000000 </v>
   <v>       0.10526316       0.10526316       0.50000000 </v>
   <v>       0.07894737       0.07894737       0.50000000 </v>
   <v>       0.05263158       0.05263158       0.50000000 </v>
   <v>       0.02631579       0.02631579       0.50000000 </v>
   <v>       0.00000000       0.00000000       0.50000000 </v>
   <v>       0.00000000       0.50000000       0.00000000 </v>
   <v>       0.00000000       0.50000000       0.02631579 </v>
   <v>       0.00000000       0.50000000       0.05263158 </v>
   <v>       0.00000000       0.50000000       0.07894737 </v>
   <v>       0.00000000       0.50000000       0.10526316 </v>
   <v>       0.00000000       0.50000000       0.13157895 </v>
   <v>       0.00000000       0.50000000       0.15789474 </v>
   <v>       0.00000000       0.50000000       0.18421053 </v>
   <v>       0.00000000       0.50000000       0.21052632 </v>
   <v>       0.00000000       0.50000000       0.23684211 </v>
   <v>       0.00000000       0.50000000       0.26315789 </v>
   <v>       0.00000000       0.50000000       0.28947368 </v>
   <v>       0.00000000       0.50000000       0.31578947 </v>
   <v>       0.00000000       0.50000000       0.34210526 </v>
   <v>       0.00000000       0.50000000       0.36842105 </v>
   <v>       0.00000000       0.50000000       0.39473684 </v>
   <v>       0.00000000       0.50000000       0.42105263 </v>
   <v>       0.00000000       0.50000000       0.44736842 </v>
   <v>       0.00000000       0.50000000       0.47368421 </v>
   <v>       0.00000000       0.50000000       0.50000000 </v>
   <v>       0.50000000       0.50000000       0.00000000 </v>
   <v>       0.50000000       0.50000000       0.02631579 </v>
   <v>       0.50000000       0.50000000       0.05263158 </v>
   <v>       0.50000000       0.50000000       0.07894737 </v>
   <v>       0.50000000       0.50000000       0.10526316 </v>
   <v>       0.50000000       0.50000000       0.13157895 </v>
   <v>       0.50000000       0.50000000       0.15789474 </v>
   <v>       0.50000000       0.50000000       0.18421053 </v>
   <v>       0.50000000       0.50000000       0.21052632 </v>
   <v>       0.50000000       0.50000000       0.23684211 </v>
   <v>       0.50000000       0.50000000       0.26315789 </v>
   <v>       0.50000000       0.50000000       0.28947368 </v>
   <v>       0.50000000       0.50000000       0.31578947 </v>
   <v>       0.50000000       0.50000000       0.34210526 </v>
   <v>       0.50000000       0.50000000       0.36842105 </v>
   <v>       0.50000000       0.50000000       0.39473684 </v>
   <v>       0.50000000       0.50000000       0.42105263 </v>
   <v>       0.50000000       0.50000000       0.44736842 </v>
   <v>       0.50000000       0.50000000       0.47368421 </v>
   <v>       0.50000000       0.50000000       0.50000000 </v>
  </varray>
  <varray name="weights" >
   <v>       0.00555556 </v>
   <v>       0.00555556 </v>
   <v>       0.00555556 </v>
   <v>       0.00555556 </v>
   <v>       0.00555556 </v>
   <v>       0.00555556 </v>
   <v>       0.00555556 </v>
   <v>       0.00555556 </v>
   <v>       0.00555556 </v>
   <v>       0.00555556 </v>
   <v>       0.00555556 </v>
   <v>       0.00555556 </v>
   <v>       0.00555556 </v>
   <v>       0.00555556 </v>
   <v>       0.00555556 </v>
   <v>       0.00555556 </v>
   <v>       0.00555556 </v>
   <v>       0.00555556 </v>
   <v>       0.00555556 </v>
   <v>       0.00555556 </v>
   <v>       0.00555556 </v>
   <v>       0.00555556 </v>
   <v>       0.00555556 </v>
   <v>       0.00555556 </v>
   <v>       0.00555556 </v>
   <v>       0.00555556 </v>
   <v>       0.00555556 </v>
   <v>       0.00555556 </v>
   <v>       0.00555556 </v>
   <v>       0.00555556 </v>
   <v>       0.00555556 </v>
   <v>       0.00555556 </v>
   <v>       0.00555556 </v>
   <v>       0.00555556 </v>
   <v>       0.00555556 </v>
   <v>       0.00555556 </v>
   <v>       0.00555556 </v>
   <v>       0.00555556 </v>
   <v>       0.00555556 </v>
   <v>       0.00555556 </v>
   <v>       0.00555556 </v>
   <v>       0.00555556 </v>
   <v>       0.00555556 </v>
   <v>       0.00555556 </v>
   <v>       0.00555556 </v>
   <v>       0.00555556 </v>
   <v>       0.00555556 </v>
   <v>       0.00555556 </v>
   <v>       0.00555556 </v>
   <v>       0.00555556 </v>
   <v>       0.00555556 </v>
   <v>       0.00555556 </v>
   <v>       0.00555556 </v>
   <v>       0.00555556 </v>
   <v>       0.00555556 </v>
   <v>       0.00555556 </v>
   <v>       0.00555556 </v>
   <v>       0.00555556 </v>
   <v>       0.00555556 </v>
   <v>       0.00555556 </v>
   <v>       0.00555556 </v>
   <v>       0.00555556 </v>
   <v>       0.00555556 </v>
   <v>       0.00555556 </v>
   <v>       0.00555556 </v>
   <v>       0.00555556 </v>
   <v>       0.00555556 </v>
   <v>       0.00555556 </v>
   <v>       0.00555556 </v>
   <v>       0.00555556 </v>
   <v>       0.00555556 </v>
   <v>       0.00555556 </v>
   <v>       0.00555556 </v>
   <v>       0.00555556 </v>
   <v>       0.00555556 </v>
   <v>       0.00555556 </v>
   <v>       0.00555556 </v>
   <v>       0.00555556 </v>
   <v>       0.00555556 </v>
   <v>       0.00555556 </v>
   <v>       0.00555556 </v>
   <v>       0.00555556 </v>
   <v>       0.00555556 </v>
   <v>       0.00555556 </v>
   <v>       0.00555556 </v>
   <v>       0.00555556 </v>
   <v>       0.00555556 </v>
   <v>       0.00555556 </v>
   <v>       0.00555556 </v>
   <v>       0.00555556 </v>
   <v>       0.00555556 </v>
   <v>       0.00555556 </v>
   <v>       0.00555556 </v>
   <v>       0.00555556 </v>
   <v>       0.00555556 </v>
   <v>       0.00555556 </v>
   <v>       0.00555556 </v>
   <v>       0.00555556 </v>
   <v>       0.00555556 </v>
   <v>       0.00555556 </v>
   <v>       0.00555556 </v>
   <v>       0.00555556 </v>
   <v>       0.00555556 </v>
   <v>       0.00555556 </v>
   <v>       0.00555556 </v>
   <v>       0.00555556 </v>
   <v>       0.00555556 </v>
   <v>       0.00555556 </v>
   <v>       0.00555556 </v>
   <v>       0.00555556 </v>
   <v>       0.00555556 </v>
   <v>       0.00555556 </v>
   <v>       0.00555556 </v>
   <v>       0.00555556 </v>
   <v>       0.00555556 </v>
   <v>       0.00555556 </v>
   <v>       0.00555556 </v>
   <v>       0.00555556 </v>
   <v>       0.00555556 </v>
   <v>       0.00555556 </v>
   <v>       0.00555556 </v>
   <v>       0.00555556 </v>
   <v>       0.00555556 </v>
   <v>       0.00555556 </v>
   <v>       0.00555556 </v>
   <v>       0.00555556 </v>
   <v>       0.00555556 </v>
   <v>       0.00555556 </v>
   <v>       0.00555556 </v>
   <v>       0.00555556 </v>
   <v>       0.00555556 </v>
   <v>       0.00555556 </v>
   <v>       0.00555556 </v>
   <v>       0.00555556 </v>
   <v>       0.00555556 </v>
   <v>       0.00555556 </v>
   <v>       0.00555556 </v>
   <v>       0.00555556 </v>
   <v>       0.00555556 </v>
   <v>       0.00555556 </v>
   <v>       0.00555556 </v>
   <v>       0.00555556 </v>
   <v>       0.00555556 </v>
   <v>       0.00555556 </v>
   <v>       0.00555556 </v>
   <v>       0.00555556 </v>
   <v>       0.00555556 </v>
   <v>       0.00555556 </v>
   <v>       0.00555556 </v>
   <v>       0.00555556 </v>
   <v>       0.00555556 </v>
   <v>       0.00555556 </v>
   <v>       0.00555556 </v>
   <v>       0.00555556 </v>
   <v>       0.00555556 </v>
   <v>       0.00555556 </v>
   <v>       0.00555556 </v>
   <v>       0.00555556 </v>
   <v>       0.00555556 </v>
   <v>       0.00555556 </v>
   <v>       0.00555556 </v>
   <v>       0.00555556 </v>
   <v>       0.00555556 </v>
   <v>       0.00555556 </v>
   <v>       0.00555556 </v>
   <v>       0.00555556 </v>
   <v>       0.00555556 </v>
   <v>       0.00555556 </v>
   <v>       0.00555556 </v>
   <v>       0.00555556 </v>
   <v>       0.00555556 </v>
   <v>       0.00555556 </v>
   <v>       0.00555556 </v>
   <v>       0.00555556 </v>
   <v>       0.00555556 </v>
   <v>       0.00555556 </v>
   <v>       0.00555556 </v>
   <v>       0.00555556 </v>
   <v>       0.00555556 </v>
   <v>       0.00555556 </v>
  </varray>
 </kpoints>
 <parameters>
  <separator name="general" >
   <i type="string" name="SYSTEM">TiO2</i>
   <i type="logical" name="LCOMPAT"> F  </i>
  </separator>
  <separator name="electronic" >
   <i type="string" name="PREC">normal</i>
   <i name="ENMAX">    460.00000000</i>
   <i name="ENAUG">    482.84800000</i>
   <i name="EDIFF">      0.00001000</i>
   <i type="int" name="IALGO">    38</i>
   <i type="int" name="IWAVPR">    10</i>
   <i type="int" name="NBANDS">    28</i>
   <i type="int" name="NBANDSLOW">    -1</i>
   <i type="int" name="NBANDSHIGH">    -1</i>
   <i name="NELECT">     48.00000000</i>
   <i type="int" name="TURBO">     0</i>
   <i type="int" name="IRESTART">     0</i>
   <i type="int" name="NREBOOT">     0</i>
   <i type="int" name="NMIN">     0</i>
   <i name="EREF">      0.00000000</i>
   <separator name="electronic smearing" >
    <i type="int" name="ISMEAR">     0</i>
    <i name="SIGMA">      0.01000000</i>
    <i name="KSPACING">      0.50000000</i>
    <i type="logical" name="KGAMMA"> T  </i>
    <i type="logical" name="KBLOWUP"> T  </i>
   </separator>
   <separator name="electronic projectors" >
    <i type="logical" name="LREAL"> F  </i>
    <v name="ROPT">      0.00000000      0.00000000</v>
    <i type="int" name="LMAXPAW">  -100</i>
    <i type="int" name="LMAXMIX">     2</i>
    <i type="logical" name="NLSPLINE"> F  </i>
   </separator>
   <separator name="electronic startup" >
    <i type="int" name="ISTART">     1</i>
    <i type="int" name="ICHARG">    11</i>
    <i type="int" name="INIWAV">     1</i>
   </separator>
   <separator name="electronic spin" >
    <i type="int" name="ISPIN">     1</i>
    <i type="logical" name="LNONCOLLINEAR"> F  </i>
    <v name="MAGMOM">      1.00000000      1.00000000      1.00000000      1.00000000      1.00000000      1.00000000</v>
    <i name="NUPDOWN">     -1.00000000</i>
    <i type="logical" name="LSORBIT"> F  </i>
    <v name="SAXIS">      0.00000000      0.00000000      1.00000000</v>
    <i type="logical" name="LSPIRAL"> F  </i>
    <v name="QSPIRAL">      0.00000000      0.00000000      0.00000000</v>
    <i type="logical" name="LZEROZ"> F  </i>
   </separator>
   <separator name="electronic exchange-correlation" >
    <i type="logical" name="LASPH"> F  </i>
    <i type="logical" name="LMETAGGA"> F  </i>
   </separator>
   <separator name="electronic convergence" >
    <i type="int" name="NELM">    60</i>
    <i type="int" name="NELMDL">     0</i>
    <i type="int" name="NELMIN">     2</i>
    <i name="ENINI">    460.00000000</i>
    <separator name="electronic convergence detail" >
     <i type="logical" name="LDIAG"> T  </i>
     <i type="logical" name="LSUBROT"> F  </i>
     <i name="WEIMIN">      0.00000000</i>
     <i name="EBREAK">      0.00000009</i>
     <i name="DEPER">      0.30000000</i>
     <i type="int" name="NRMM">     4</i>
     <i name="TIME">      0.40000000</i>
    </separator>
   </separator>
   <separator name="electronic mixer" >
    <i name="AMIX">      0.40000000</i>
    <i name="BMIX">      1.00000000</i>
    <i name="AMIN">      0.10000000</i>
    <i name="AMIX_MAG">      1.60000000</i>
    <i name="BMIX_MAG">      1.00000000</i>
    <separator name="electronic mixer details" >
     <i type="int" name="IMIX">     4</i>
     <i type="logical" name="MIXFIRST"> F  </i>
     <i type="int" name="MAXMIX">   -45</i>
     <i name="WC">    100.00000000</i>
     <i type="int" name="INIMIX">     1</i>
     <i type="int" name="MIXPRE">     1</i>
     <i type="int" name="MREMOVE">     5</i>
    </separator>
   </separator>
   <separator name="electronic dipolcorrection" >
    <i type="logical" name="LDIPOL"> F  </i>
    <i type="logical" name="LMONO"> F  </i>
    <i type="int" name="IDIPOL">     0</i>
    <i name="EPSILON">      1.00000000</i>
    <v name="DIPOL">   -100.00000000   -100.00000000   -100.00000000</v>
    <i name="EFIELD">      0.00000000</i>
   </separator>
  </separator>
  <separator name="grids" >
   <i type="int" name="NGX">    24</i>
   <i type="int" name="NGY">    24</i>
   <i type="int" name="NGZ">    16</i>
   <i type="int" name="NGXF">    48</i>
   <i type="int" name="NGYF">    48</i>
   <i type="int" name="NGZF">    32</i>
   <i type="logical" name="ADDGRID"> F  </i>
  </separator>
  <separator name="ionic" >
   <i type="int" name="NSW">     0</i>
   <i type="int" name="IBRION">    -1</i>
   <i type="int" name="MDALGO">     0</i>
   <i type="int" name="ISIF">     2</i>
   <i name="PSTRESS">      0.00000000</i>
   <i name="EDIFFG">      0.00010000</i>
   <i type="int" name="NFREE">     0</i>
   <i name="POTIM">      0.50000000</i>
   <i name="SMASS">     -3.00000000</i>
   <i name="SCALEE">      1.00000000</i>
  </separator>
  <separator name="ionic md" >
   <i name="TEBEG">      0.00010000</i>
   <i name="TEEND">      0.00010000</i>
   <i type="int" name="NBLOCK">     1</i>
   <i type="int" name="KBLOCK">     1</i>
   <i type="int" name="NPACO">   256</i>
   <i name="APACO">     16.00000000</i>
  </separator>
  <separator name="symmetry" >
   <i type="int" name="ISYM">     2</i>
   <i name="SYMPREC">      0.00001000</i>
  </separator>
  <separator name="dos" >
   <i type="int" name="LORBIT">     0</i>
   <v name="RWIGS">     -1.00000000     -1.00000000</v>
   <i type="int" name="NEDOS">   301</i>
   <i name="EMIN">     10.00000000</i>
   <i name="EMAX">    -10.00000000</i>
   <i name="EFERMI">      0.00000000</i>
  </separator>
  <separator name="writing" >
   <i type="int" name="NWRITE">     2</i>
   <i type="logical" name="LWAVE"> T  </i>
   <i type="logical" name="LDOWNSAMPLE"> F  </i>
   <i type="logical" name="LCHARG"> T  </i>
   <i type="logical" name="LPARD"> F  </i>
   <i type="logical" name="LVTOT"> F  </i>
   <i type="logical" name="LVHAR"> F  </i>
   <i type="logical" name="LELF"> F  </i>
   <i type="logical" name="LOPTICS"> F  </i>
   <v name="STM">      0.00000000      0.00000000      0.00000000      0.00000000      0.00000000      0.00000000      0.00000000</v>
  </separator>
  <separator name="performance" >
   <i type="int" name="NPAR">     1</i>
   <i type="int" name="NSIM">     4</i>
   <i type="int" name="NBLK">    -1</i>
   <i type="logical" name="LPLANE"> T  </i>
   <i type="logical" name="LSCALAPACK"> T  </i>
   <i type="logical" name="LSCAAWARE"> F  </i>
   <i type="logical" name="LSCALU"> F  </i>
   <i type="logical" name="LASYNC"> F  </i>
   <i type="logical" name="LORBITALREAL"> F  </i>
  </separator>
  <separator name="miscellaneous" >
   <i type="int" name="IDIOT">     3</i>
   <i type="int" name="PHON_NSTRUCT">    -1</i>
   <i type="logical" name="LMUSIC"> F  </i>
   <v name="POMASS">     47.88000000     16.00000000</v>
   <v name="DARWINR">      0.00000000      0.00000000</v>
   <v name="DARWINV">      1.00000000      1.00000000</v>
   <i type="logical" name="LCORR"> T  </i>
  </separator>
  <i type="logical" name="GGA_COMPAT"> T  </i>
  <i type="logical" name="LBERRY"> F  </i>
  <i type="int" name="ICORELEVEL">     0</i>
  <i type="logical" name="LDAU"> F  </i>
  <i type="int" name="I_CONSTRAINED_M">     0</i>
  <separator name="electronic exchange-correlation" >
   <i type="string" name="GGA">--</i>
   <i type="int" name="VOSKOWN">     0</i>
   <i type="logical" name="LHFCALC"> F  </i>
   <i type="string" name="PRECFOCK"></i>
   <i type="logical" name="LSYMGRAD"> F  </i>
   <i type="logical" name="LHFONE"> F  </i>
   <i type="logical" name="LRHFCALC"> F  </i>
   <i type="logical" name="LTHOMAS"> F  </i>
   <i type="logical" name="LMODELHF"> F  </i>
   <i type="logical" name="LFOCKACE"> F  </i>
   <i name="ENCUT4O">     -1.00000000</i>
   <i type="int" name="EXXOEP">     0</i>
   <i type="int" name="FOURORBIT">     0</i>
   <i name="AEXX">      0.00000000</i>
   <i name="HFALPHA">      0.00000000</i>
   <i name="MCALPHA">      0.00000000</i>
   <i name="ALDAX">      1.00000000</i>
   <i name="AGGAX">      1.00000000</i>
   <i name="ALDAC">      1.00000000</i>
   <i name="AGGAC">      1.00000000</i>
   <i type="int" name="NKREDX">     1</i>
   <i type="int" name="NKREDY">     1</i>
   <i type="int" name="NKREDZ">     1</i>
   <i type="logical" name="SHIFTRED"> F  </i>
   <i type="logical" name="ODDONLY"> F  </i>
   <i type="logical" name="EVENONLY"> F  </i>
   <i type="int" name="LMAXFOCK">     0</i>
   <i type="int" name="NMAXFOCKAE">     0</i>
   <i type="logical" name="LFOCKAEDFT"> F  </i>
   <i name="HFSCREEN">      0.00000000</i>
   <i name="HFSCREENC">      0.00000000</i>
   <i type="int" name="NBANDSGWLOW">     0</i>
  </separator>
  <separator name="vdW DFT" >
   <i type="logical" name="LUSE_VDW"> F  </i>
   <i name="Zab_VDW">     -0.84910000</i>
   <i name="PARAM1">      0.12340000</i>
   <i name="PARAM2">      1.00000000</i>
   <i name="PARAM3">      0.00000000</i>
  </separator>
  <separator name="model GW" >
   <i type="int" name="MODEL_GW">     0</i>
   <i name="MODEL_EPS0">      6.20515544</i>
   <i name="MODEL_ALPHA">      1.00000000</i>
  </separator>
  <separator name="linear response parameters" >
   <i type="logical" name="LEPSILON"> F  </i>
   <i type="logical" name="LRPA"> F  </i>
   <i type="logical" name="LNABLA"> F  </i>
   <i type="logical" name="LVEL"> F  </i>
   <i type="int" name="KINTER">     0</i>
   <i name="CSHIFT">      0.10000000</i>
   <i name="OMEGAMAX">     -1.00000000</i>
   <i name="DEG_THRESHOLD">      0.00200000</i>
   <i name="RTIME">     -0.10000000</i>
   <i name="WPLASMAI">      0.00000000</i>
   <v name="DFIELD">      0.00000000      0.00000000      0.00000000</v>
   <v name="WPLASMA">      0.00000000      0.00000000      0.00000000      0.00000000      0.00000000      0.00000000      0.00000000      0.00000000      0.00000000</v>
  </separator>
  <separator name="orbital magnetization" >
   <i type="logical" name="NUCIND"> F  </i>
   <v name="MAGPOS">      0.00000000      0.00000000      0.00000000</v>
   <i type="logical" name="LNICSALL"> T  </i>
   <i type="logical" name="ORBITALMAG"> F  </i>
   <i type="logical" name="LMAGBLOCH"> F  </i>
   <i type="logical" name="LCHIMAG"> F  </i>
   <i type="logical" name="LGAUGE"> T  </i>
   <i type="int" name="MAGATOM">     0</i>
   <v name="MAGDIPOL">      0.00000000      0.00000000      0.00000000</v>
   <v name="AVECCONST">      0.00000000      0.00000000      0.00000000</v>
  </separator>
  <separator name="response functions" >
   <i type="logical" name="LFINITE_TEMPERATURE"> F  </i>
   <i type="logical" name="LADDER"> F  </i>
   <i type="logical" name="LRPAFORCE"> F  </i>
   <i type="logical" name="LFXC"> F  </i>
   <i type="logical" name="LHARTREE"> T  </i>
   <i type="int" name="IBSE">     0</i>
   <v type="int" name="KPOINT">    -1     0     0     0</v>
   <i type="logical" name="LTCTC"> F  </i>
   <i type="logical" name="LTCTE"> F  </i>
   <i type="logical" name="LTETE"> F  </i>
   <i type="logical" name="LTRIPLET"> F  </i>
   <i type="logical" name="LFXCEPS"> F  </i>
   <i type="logical" name="LFXHEG"> F  </i>
   <i type="int" name="NATURALO">     2</i>
   <i type="logical" name="LHOLEGF"> F  </i>
   <i type="logical" name="L2ORDER"> F  </i>
   <i type="logical" name="LDMP1"> F  </i>
   <i type="logical" name="LMP2LT"> F  </i>
   <i type="logical" name="LSMP2LT"> F  </i>
   <i type="logical" name="LGWLF"> F  </i>
   <i name="ENCUTGW">     -2.00000000</i>
   <i name="ENCUTGWSOFT">     -2.00000000</i>
   <i name="ENCUTLF">     -1.00000000</i>
   <i type="logical" name="LESF_SPLINES"> F  </i>
   <i type="int" name="LMAXMP2">    -1</i>
   <i name="SCISSOR">      0.00000000</i>
   <i type="int" name="NOMEGA">     0</i>
   <i type="int" name="NOMEGAR">     0</i>
   <i type="int" name="NBANDSGW">    -1</i>
   <i type="int" name="NBANDSO">    -1</i>
   <i type="int" name="NBANDSV">    -1</i>
   <i type="int" name="NELM">     1</i>
   <i type="int" name="NELMHF">     1</i>
   <i type="int" name="DIM">     3</i>
   <i type="int" name="IESPILON">     4</i>
   <i type="int" name="ANTIRES">     0</i>
   <i name="OMEGAMAX">    -30.00000000</i>
   <i name="OMEGAMIN">    -30.00000000</i>
   <i name="OMEGATL">   -200.00000000</i>
   <i type="int" name="OMEGAGRID">     0</i>
   <i name="CSHIFT">     -0.10000000</i>
   <i type="logical" name="LSELFENERGY"> F  </i>
   <i type="logical" name="LSPECTRAL"> F  </i>
   <i type="logical" name="LSPECTRALGW"> F  </i>
   <i type="logical" name="LSINGLES"> F  </i>
   <i type="logical" name="LFERMIGW"> F  </i>
   <i type="logical" name="ODDONLYGW"> F  </i>
   <i type="logical" name="EVENONLYGW"> F  </i>
   <i type="int" name="NKREDLFX">     1</i>
   <i type="int" name="NKREDLFY">     1</i>
   <i type="int" name="NKREDLFZ">     1</i>
   <i type="int" name="MAXMEM">  2800</i>
   <i type="int" name="TELESCOPE">     0</i>
   <i type="int" name="NTAUPAR">    -1</i>
   <i type="int" name="NOMEGAPAR">    -1</i>
   <i name="DAMP_NEWTON">      0.80000001</i>
   <i name="LAMBDA">      1.00000000</i>
  </separator>
  <separator name="External order field" >
   <i name="OFIELD_KAPPA">      0.00000000</i>
   <v name="OFIELD_K">      0.00000000      0.00000000      0.00000000</v>
   <i name="OFIELD_Q6_NEAR">      0.00000000</i>
   <i name="OFIELD_Q6_FAR">      0.00000000</i>
   <i name="OFIELD_A">      0.00000000</i>
  </separator>
 </parameters>
 <atominfo>
  <atoms>       6 </atoms>
  <types>       2 </types>
  <array name="atoms" >
   <dimension dim="1">ion</dimension>
   <field type="string">element</field>
   <field type="int">atomtype</field>
   <set>
    <rc><c>Ti</c><c>   1</c></rc>
    <rc><c>Ti</c><c>   1</c></rc>
    <rc><c>O </c><c>   2</c></rc>
    <rc><c>O </c><c>   2</c></rc>
    <rc><c>O </c><c>   2</c></rc>
    <rc><c>O </c><c>   2</c></rc>
   </set>
  </array>
  <array name="atomtypes" >
   <dimension dim="1">type</dimension>
   <field type="int">atomspertype</field>
   <field type="string">element</field>
   <field>mass</field>
   <field>valence</field>
   <field type="string">pseudopotential</field>
   <set>
    <rc><c>   2</c><c>Ti</c><c>     47.88000000</c><c>     12.00000000</c><c>  PAW_PBE Ti_sv 26Sep2005               </c></rc>
    <rc><c>   4</c><c>O </c><c>     16.00000000</c><c>      6.00000000</c><c> PAW_PBE O_s 07Sep2000                  </c></rc>
   </set>
  </array>
 </atominfo>
 <structure name="initialpos" >
  <crystal>
   <varray name="basis" >
    <v>       4.58400000       0.00000000       0.00000000 </v>
    <v>       0.00000000       4.58400000       0.00000000 </v>
    <v>       0.00000000       0.00000000       2.95300000 </v>
   </varray>
   <i name="volume">     62.05155437 </i>
   <varray name="rec_basis" >
    <v>       0.21815009       0.00000000       0.00000000 </v>
    <v>       0.00000000       0.21815009       0.00000000 </v>
    <v>       0.00000000       0.00000000       0.33863867 </v>
   </varray>
  </crystal>
  <varray name="positions" >
   <v>       0.00000000       0.00000000       0.00000000 </v>
   <v>       0.50000000       0.50000000       0.50000000 </v>
   <v>       0.19620933       0.80379067       0.50000000 </v>
   <v>       0.80379067       0.19620933       0.50000000 </v>
   <v>       0.30379067       0.30379067       0.00000000 </v>
   <v>       0.69620933       0.69620933       0.00000000 </v>
  </varray>
 </structure>
 <calculation>
  <scstep>
   <time name="dav">    4.72    4.72</time>
   <time name="total">    4.76    4.79</time>
   <energy>
    <i name="alphaZ">    184.33841299 </i>
    <i name="ewald">  -3605.32907450 </i>
    <i name="hartreedc">  -1224.17587072 </i>
    <i name="XCdc">    236.18856659 </i>
    <i name="pawpsdc">   7133.72201308 </i>
    <i name="pawaedc">  -7106.42037558 </i>
    <i name="eentropy">     -0.00000000 </i>
    <i name="bandstr">   -567.87876570 </i>
    <i name="atom">   4905.63925112 </i>
    <i name="e_fr_energy">    -43.91584270 </i>
    <i name="e_wo_entrp">    -43.91584270 </i>
    <i name="e_0_energy">    -43.91584270 </i>
   </energy>
  </scstep>
  <scstep>
   <time name="dav">    3.80    3.80</time>
   <time name="total">    3.80    3.80</time>
   <energy>
    <i name="e_fr_energy">    -52.87161579 </i>
    <i name="e_wo_entrp">    -52.87161579 </i>
    <i name="e_0_energy">    -52.87161579 </i>
   </energy>
  </scstep>
  <scstep>
   <time name="dav">    4.68    4.68</time>
   <time name="total">    4.68    4.68</time>
   <energy>
    <i name="e_fr_energy">    -53.17325602 </i>
    <i name="e_wo_entrp">    -53.17325602 </i>
    <i name="e_0_energy">    -53.17325602 </i>
   </energy>
  </scstep>
  <scstep>
   <time name="dav">    4.34    4.34</time>
   <time name="total">    4.35    4.35</time>
   <energy>
    <i name="e_fr_energy">    -53.17984987 </i>
    <i name="e_wo_entrp">    -53.17984987 </i>
    <i name="e_0_energy">    -53.17984987 </i>
   </energy>
  </scstep>
  <scstep>
   <time name="dav">    4.56    4.56</time>
   <time name="total">    4.56    4.56</time>
   <energy>
    <i name="e_fr_energy">    -53.17996052 </i>
    <i name="e_wo_entrp">    -53.17996052 </i>
    <i name="e_0_energy">    -53.17996052 </i>
   </energy>
  </scstep>
  <scstep>
   <time name="dav">    3.22    3.22</time>
   <time name="total">    3.22    3.22</time>
   <energy>
    <i name="alphaZ">    184.33841299 </i>
    <i name="ewald">  -3605.32907450 </i>
    <i name="hartreedc">  -1224.17587072 </i>
    <i name="XCdc">    236.18856659 </i>
    <i name="pawpsdc">   7133.72201308 </i>
    <i name="pawaedc">  -7106.42037558 </i>
    <i name="eentropy">     -0.00000000 </i>
    <i name="bandstr">   -577.14288510 </i>
    <i name="atom">   4905.63925112 </i>
    <i name="e_fr_energy">    -53.17996210 </i>
    <i name="e_wo_entrp">    -53.17996210 </i>
    <i name="e_0_energy">    -53.17996210 </i>
   </energy>
  </scstep>
  <structure>
   <crystal>
    <varray name="basis" >
     <v>       4.58400000       0.00000000       0.00000000 </v>
     <v>       0.00000000       4.58400000       0.00000000 </v>
     <v>       0.00000000       0.00000000       2.95300000 </v>
    </varray>
    <i name="volume">     62.05155437 </i>
    <varray name="rec_basis" >
     <v>       0.21815009       0.00000000       0.00000000 </v>
     <v>       0.00000000       0.21815009       0.00000000 </v>
     <v>       0.00000000       0.00000000       0.33863867 </v>
    </varray>
   </crystal>
   <varray name="positions" >
    <v>       0.00000000       0.00000000       0.00000000 </v>
    <v>       0.50000000       0.50000000       0.50000000 </v>
    <v>       0.19620933       0.80379067       0.50000000 </v>
    <v>       0.80379067       0.19620933       0.50000000 </v>
    <v>       0.30379067       0.30379067       0.00000000 </v>
    <v>       0.69620933       0.69620933       0.00000000 </v>
   </varray>
  </structure>
  <varray name="forces" >
   <v>       0.00000000       0.00000000       0.00000000 </v>
   <v>      -0.00000000      -0.00000000       0.00000000 </v>
   <v>       0.15722822      -0.15722822      -0.00000000 </v>
   <v>      -0.15722822       0.15722822       0.00000000 </v>
   <v>      -0.15722822      -0.15722822      -0.00000000 </v>
   <v>       0.15722822       0.15722822       0.00000000 </v>
  </varray>
  <varray name="stress" >
   <v>     120.88017344       0.00000000       0.00000000 </v>
   <v>      -0.00000000     120.88017344       0.00000000 </v>
   <v>       0.00000000       0.00000000     137.32573735 </v>
  </varray>
  <energy>
   <i name="e_fr_energy">    -53.17996210 </i>
   <i name="e_wo_entrp">    -53.17996210 </i>
   <i name="e_0_energy">    -53.17996210 </i>
  </energy>
  <time name="totalsc">   31.38   32.71</time>
  <eigenvalues>
   <array>
    <dimension dim="1">band</dimension>
    <dimension dim="2">kpoint</dimension>
    <dimension dim="3">spin</dimension>
    <field>eigene</field>
    <field>occ</field>
    <set>
     <set comment="spin 1">
      <set comment="kpoint 1">
       <r>  -51.6356    1.0000 </r>
       <r>  -51.6182    1.0000 </r>
       <r>  -27.9487    1.0000 </r>
       <r>  -27.9487    1.0000 </r>
       <r>  -27.7797    1.0000 </r>
       <r>  -27.7797    1.0000 </r>
       <r>  -27.7403    1.0000 </r>
       <r>  -27.7053    1.0000 </r>
       <r>  -12.9524    1.0000 </r>
       <r>  -11.7728    1.0000 </r>
       <r>  -11.0325    1.0000 </r>
       <r>  -11.0325    1.0000 </r>
       <r>   -0.5206    1.0000 </r>
       <r>   -0.1095    1.0000 </r>
       <r>    0.3165    1.0000 </r>
       <r>    1.4458    1.0000 </r>
       <r>    1.4458    1.0000 </r>
       <r>    2.7133    1.0000 </r>
       <r>    2.7133    1.0000 </r>
       <r>    3.2776    1.0000 </r>
       <r>    4.5711    1.0000 </r>
       <r>    4.8250    1.0000 </r>
       <r>    4.8250    1.0000 </r>
       <r>    5.3059    1.0000 </r>
       <r>    7.1406    0.0000 </r>
       <r>    7.4221    0.0000 </r>
       <r>    7.6744    0.0000 </r>
       <r>    7.7815    0.0000 </r>
      </set>
      <set comment="kpoint 2">
       <r>  -51.6356    1.0000 </r>
       <r>  -51.6182    1.0000 </r>
       <r>  -27.9485    1.0000 </r>
       <r>  -27.9484    1.0000 </r>
       <r>  -27.7800    1.0000 </r>
       <r>  -27.7800    1.0000 </r>
       <r>  -27.7403    1.0000 </r>
       <r>  -27.7054    1.0000 </r>
       <r>  -12.9498    1.0000 </r>
       <r>  -11.7727    1.0000 </r>
       <r>  -11.0352    1.0000 </r>
       <r>  -11.0335    1.0000 </r>
       <r>   -0.5156    1.0000 </r>
       <r>   -0.1064    1.0000 </r>
       <r>    0.3209    1.0000 </r>
       <r>    1.4461    1.0000 </r>
       <r>    1.4464    1.0000 </r>
       <r>    2.7084    1.0000 </r>
       <r>    2.7122    1.0000 </r>
       <r>    3.2779    1.0000 </r>
       <r>    4.5661    1.0000 </r>
       <r>    4.8111    1.0000 </r>
       <r>    4.8180    1.0000 </r>
       <r>    5.3037    1.0000 </r>
       <r>    7.1449    0.0000 </r>
       <r>    7.4285    0.0000 </r>
       <r>    7.6802    0.0000 </r>
       <r>    7.7860    0.0000 </r>
      </set>
      <set comment="kpoint 3">
       <r>  -51.6355    1.0000 </r>
       <r>  -51.6183    1.0000 </r>
       <r>  -27.9478    1.0000 </r>
       <r>  -27.9477    1.0000 </r>
       <r>  -27.7808    1.0000 </r>
       <r>  -27.7807    1.0000 </r>
       <r>  -27.7401    1.0000 </r>
       <r>  -27.7056    1.0000 </r>
       <r>  -12.9423    1.0000 </r>
       <r>  -11.7725    1.0000 </r>
       <r>  -11.0434    1.0000 </r>
       <r>  -11.0365    1.0000 </r>
       <r>   -0.5011    1.0000 </r>
       <r>   -0.0974    1.0000 </r>
       <r>    0.3342    1.0000 </r>
       <r>    1.4470    1.0000 </r>
       <r>    1.4480    1.0000 </r>
       <r>    2.6939    1.0000 </r>
       <r>    2.7090    1.0000 </r>
       <r>    3.2785    1.0000 </r>
       <r>    4.5513    1.0000 </r>
       <r>    4.7697    1.0000 </r>
       <r>    4.7974    1.0000 </r>
       <r>    5.2968    1.0000 </r>
       <r>    7.1577    0.0000 </r>
       <r>    7.4470    0.0000 </r>
       <r>    7.7102    0.0000 </r>
       <r>    7.7993    0.0000 </r>
      </set>
      <set comment="kpoint 4">
       <r>  -51.6353    1.0000 </r>
       <r>  -51.6185    1.0000 </r>
       <r>  -27.9466    1.0000 </r>
       <r>  -27.9464    1.0000 </r>
       <r>  -27.7823    1.0000 </r>
       <r>  -27.7821    1.0000 </r>
       <r>  -27.7398    1.0000 </r>
       <r>  -27.7059    1.0000 </r>
       <r>  -12.9298    1.0000 </r>
       <r>  -11.7723    1.0000 </r>
       <r>  -11.0568    1.0000 </r>
       <r>  -11.0414    1.0000 </r>
       <r>   -0.4770    1.0000 </r>
       <r>   -0.0824    1.0000 </r>
       <r>    0.3566    1.0000 </r>
       <r>    1.4485    1.0000 </r>
       <r>    1.4507    1.0000 </r>
       <r>    2.6702    1.0000 </r>
       <r>    2.7034    1.0000 </r>
       <r>    3.2797    1.0000 </r>
       <r>    4.5273    1.0000 </r>
       <r>    4.7030    1.0000 </r>
       <r>    4.7649    1.0000 </r>
       <r>    5.2848    1.0000 </r>
       <r>    7.1784    0.0000 </r>
       <r>    7.4761    0.0000 </r>
       <r>    7.8083    0.0000 </r>
       <r>    7.8209    0.0000 </r>
      </set>
      <set comment="kpoint 5">
       <r>  -51.6351    1.0000 </r>
       <r>  -51.6187    1.0000 </r>
       <r>  -27.9450    1.0000 </r>
       <r>  -27.9446    1.0000 </r>
       <r>  -27.7843    1.0000 </r>
       <r>  -27.7839    1.0000 </r>
       <r>  -27.7394    1.0000 </r>
       <r>  -27.7063    1.0000 </r>
       <r>  -12.9123    1.0000 </r>
       <r>  -11.7723    1.0000 </r>
       <r>  -11.0750    1.0000 </r>
       <r>  -11.0483    1.0000 </r>
       <r>   -0.4441    1.0000 </r>
       <r>   -0.0617    1.0000 </r>
       <r>    0.3883    1.0000 </r>
       <r>    1.4506    1.0000 </r>
       <r>    1.4544    1.0000 </r>
       <r>    2.6380    1.0000 </r>
       <r>    2.6948    1.0000 </r>
       <r>    3.2815    1.0000 </r>
       <r>    4.4946    1.0000 </r>
       <r>    4.6136    1.0000 </r>
       <r>    4.7229    1.0000 </r>
       <r>    5.2670    1.0000 </r>
       <r>    7.2062    0.0000 </r>
       <r>    7.5136    0.0000 </r>
       <r>    7.8287    0.0000 </r>
       <r>    7.8501    0.0000 </r>
      </set>
      <set comment="kpoint 6">
       <r>  -51.6348    1.0000 </r>
       <r>  -51.6188    1.0000 </r>
       <r>  -27.9429    1.0000 </r>
       <r>  -27.9424    1.0000 </r>
       <r>  -27.7868    1.0000 </r>
       <r>  -27.7862    1.0000 </r>
       <r>  -27.7388    1.0000 </r>
       <r>  -27.7068    1.0000 </r>
       <r>  -12.8901    1.0000 </r>
       <r>  -11.7728    1.0000 </r>
       <r>  -11.0974    1.0000 </r>
       <r>  -11.0570    1.0000 </r>
       <r>   -0.4030    1.0000 </r>
       <r>   -0.0357    1.0000 </r>
       <r>    0.4294    1.0000 </r>
       <r>    1.4532    1.0000 </r>
       <r>    1.4589    1.0000 </r>
       <r>    2.5982    1.0000 </r>
       <r>    2.6829    1.0000 </r>
       <r>    3.2843    1.0000 </r>
       <r>    4.4541    1.0000 </r>
       <r>    4.5044    1.0000 </r>
       <r>    4.6744    1.0000 </r>
       <r>    5.2432    1.0000 </r>
       <r>    7.2402    0.0000 </r>
       <r>    7.5568    0.0000 </r>
       <r>    7.8084    0.0000 </r>
       <r>    7.8668    0.0000 </r>
      </set>
      <set comment="kpoint 7">
       <r>  -51.6345    1.0000 </r>
       <r>  -51.6191    1.0000 </r>
       <r>  -27.9404    1.0000 </r>
       <r>  -27.9396    1.0000 </r>
       <r>  -27.7898    1.0000 </r>
       <r>  -27.7889    1.0000 </r>
       <r>  -27.7382    1.0000 </r>
       <r>  -27.7074    1.0000 </r>
       <r>  -12.8631    1.0000 </r>
       <r>  -11.7745    1.0000 </r>
       <r>  -11.1232    1.0000 </r>
       <r>  -11.0674    1.0000 </r>
       <r>   -0.3546    1.0000 </r>
       <r>   -0.0048    1.0000 </r>
       <r>    0.4802    1.0000 </r>
       <r>    1.4565    1.0000 </r>
       <r>    1.4641    1.0000 </r>
       <r>    2.5520    1.0000 </r>
       <r>    2.6667    1.0000 </r>
       <r>    3.2885    1.0000 </r>
       <r>    4.3780    1.0000 </r>
       <r>    4.4067    1.0000 </r>
       <r>    4.6227    1.0000 </r>
       <r>    5.2134    1.0000 </r>
       <r>    7.2790    0.0000 </r>
       <r>    7.6031    0.0000 </r>
       <r>    7.8842    0.0000 </r>
       <r>    7.9265    0.0000 </r>
      </set>
      <set comment="kpoint 8">
       <r>  -51.6341    1.0000 </r>
       <r>  -51.6195    1.0000 </r>
       <r>  -27.9375    1.0000 </r>
       <r>  -27.9365    1.0000 </r>
       <r>  -27.7932    1.0000 </r>
       <r>  -27.7921    1.0000 </r>
       <r>  -27.7374    1.0000 </r>
       <r>  -27.7082    1.0000 </r>
       <r>  -12.8317    1.0000 </r>
       <r>  -11.7778    1.0000 </r>
       <r>  -11.1514    1.0000 </r>
       <r>  -11.0794    1.0000 </r>
       <r>   -0.3004    1.0000 </r>
       <r>    0.0304    1.0000 </r>
       <r>    0.5412    1.0000 </r>
       <r>    1.4600    1.0000 </r>
       <r>    1.4698    1.0000 </r>
       <r>    2.5006    1.0000 </r>
       <r>    2.6457    1.0000 </r>
       <r>    3.2942    1.0000 </r>
       <r>    4.2370    1.0000 </r>
       <r>    4.3536    1.0000 </r>
       <r>    4.5709    1.0000 </r>
       <r>    5.1779    1.0000 </r>
       <r>    7.3217    0.0000 </r>
       <r>    7.6497    0.0000 </r>
       <r>    7.9183    0.0000 </r>
       <r>    7.9711    0.0000 </r>
      </set>
      <set comment="kpoint 9">
       <r>  -51.6337    1.0000 </r>
       <r>  -51.6199    1.0000 </r>
       <r>  -27.9343    1.0000 </r>
       <r>  -27.9330    1.0000 </r>
       <r>  -27.7971    1.0000 </r>
       <r>  -27.7957    1.0000 </r>
       <r>  -27.7366    1.0000 </r>
       <r>  -27.7090    1.0000 </r>
       <r>  -12.7959    1.0000 </r>
       <r>  -11.7837    1.0000 </r>
       <r>  -11.1810    1.0000 </r>
       <r>  -11.0929    1.0000 </r>
       <r>   -0.2413    1.0000 </r>
       <r>    0.0692    1.0000 </r>
       <r>    0.6126    1.0000 </r>
       <r>    1.4640    1.0000 </r>
       <r>    1.4757    1.0000 </r>
       <r>    2.4454    1.0000 </r>
       <r>    2.6192    1.0000 </r>
       <r>    3.3020    1.0000 </r>
       <r>    4.0837    1.0000 </r>
       <r>    4.2958    1.0000 </r>
       <r>    4.5220    1.0000 </r>
       <r>    5.1372    1.0000 </r>
       <r>    7.3672    0.0000 </r>
       <r>    7.6946    0.0000 </r>
       <r>    7.9557    0.0000 </r>
       <r>    8.0180    0.0000 </r>
      </set>
      <set comment="kpoint 10">
       <r>  -51.6332    1.0000 </r>
       <r>  -51.6204    1.0000 </r>
       <r>  -27.9306    1.0000 </r>
       <r>  -27.9291    1.0000 </r>
       <r>  -27.8014    1.0000 </r>
       <r>  -27.7997    1.0000 </r>
       <r>  -27.7356    1.0000 </r>
       <r>  -27.7099    1.0000 </r>
       <r>  -12.7559    1.0000 </r>
       <r>  -11.7930    1.0000 </r>
       <r>  -11.2102    1.0000 </r>
       <r>  -11.1077    1.0000 </r>
       <r>   -0.1786    1.0000 </r>
       <r>    0.1107    1.0000 </r>
       <r>    0.6949    1.0000 </r>
       <r>    1.4683    1.0000 </r>
       <r>    1.4818    1.0000 </r>
       <r>    2.3881    1.0000 </r>
       <r>    2.5868    1.0000 </r>
       <r>    3.3122    1.0000 </r>
       <r>    3.9205    1.0000 </r>
       <r>    4.2345    1.0000 </r>
       <r>    4.4786    1.0000 </r>
       <r>    5.0919    1.0000 </r>
       <r>    7.4144    0.0000 </r>
       <r>    7.7356    0.0000 </r>
       <r>    7.9958    0.0000 </r>
       <r>    8.0660    0.0000 </r>
      </set>
      <set comment="kpoint 11">
       <r>  -51.6328    1.0000 </r>
       <r>  -51.6209    1.0000 </r>
       <r>  -27.9267    1.0000 </r>
       <r>  -27.9249    1.0000 </r>
       <r>  -27.8059    1.0000 </r>
       <r>  -27.8040    1.0000 </r>
       <r>  -27.7346    1.0000 </r>
       <r>  -27.7109    1.0000 </r>
       <r>  -12.7121    1.0000 </r>
       <r>  -11.8070    1.0000 </r>
       <r>  -11.2378    1.0000 </r>
       <r>  -11.1236    1.0000 </r>
       <r>   -0.1136    1.0000 </r>
       <r>    0.1538    1.0000 </r>
       <r>    0.7880    1.0000 </r>
       <r>    1.4729    1.0000 </r>
       <r>    1.4877    1.0000 </r>
       <r>    2.3303    1.0000 </r>
       <r>    2.5481    1.0000 </r>
       <r>    3.3249    1.0000 </r>
       <r>    3.7490    1.0000 </r>
       <r>    4.1705    1.0000 </r>
       <r>    4.4429    1.0000 </r>
       <r>    5.0425    1.0000 </r>
       <r>    7.4622    0.0000 </r>
       <r>    7.7718    0.0000 </r>
       <r>    8.0375    0.0000 </r>
       <r>    8.1135    0.0000 </r>
      </set>
      <set comment="kpoint 12">
       <r>  -51.6323    1.0000 </r>
       <r>  -51.6214    1.0000 </r>
       <r>  -27.9225    1.0000 </r>
       <r>  -27.9204    1.0000 </r>
       <r>  -27.8107    1.0000 </r>
       <r>  -27.8086    1.0000 </r>
       <r>  -27.7335    1.0000 </r>
       <r>  -27.7120    1.0000 </r>
       <r>  -12.6646    1.0000 </r>
       <r>  -11.8267    1.0000 </r>
       <r>  -11.2621    1.0000 </r>
       <r>  -11.1404    1.0000 </r>
       <r>   -0.0477    1.0000 </r>
       <r>    0.1974    1.0000 </r>
       <r>    0.8924    1.0000 </r>
       <r>    1.4777    1.0000 </r>
       <r>    1.4933    1.0000 </r>
       <r>    2.2737    1.0000 </r>
       <r>    2.5038    1.0000 </r>
       <r>    3.3411    1.0000 </r>
       <r>    3.5715    1.0000 </r>
       <r>    4.1049    1.0000 </r>
       <r>    4.4165    1.0000 </r>
       <r>    4.9900    1.0000 </r>
       <r>    7.5101    0.0000 </r>
       <r>    7.8021    0.0000 </r>
       <r>    8.0801    0.0000 </r>
       <r>    8.1591    0.0000 </r>
      </set>
      <set comment="kpoint 13">
       <r>  -51.6316    1.0000 </r>
       <r>  -51.6220    1.0000 </r>
       <r>  -27.9180    1.0000 </r>
       <r>  -27.9158    1.0000 </r>
       <r>  -27.8157    1.0000 </r>
       <r>  -27.8134    1.0000 </r>
       <r>  -27.7323    1.0000 </r>
       <r>  -27.7132    1.0000 </r>
       <r>  -12.6138    1.0000 </r>
       <r>  -11.8530    1.0000 </r>
       <r>  -11.2818    1.0000 </r>
       <r>  -11.1579    1.0000 </r>
       <r>    0.0177    1.0000 </r>
       <r>    0.2397    1.0000 </r>
       <r>    1.0076    1.0000 </r>
       <r>    1.4826    1.0000 </r>
       <r>    1.4983    1.0000 </r>
       <r>    2.2204    1.0000 </r>
       <r>    2.4543    1.0000 </r>
       <r>    3.3608    1.0000 </r>
       <r>    3.3892    1.0000 </r>
       <r>    4.0386    1.0000 </r>
       <r>    4.4002    1.0000 </r>
       <r>    4.9349    1.0000 </r>
       <r>    7.5571    0.0000 </r>
       <r>    7.8259    0.0000 </r>
       <r>    8.1224    0.0000 </r>
       <r>    8.2014    0.0000 </r>
      </set>
      <set comment="kpoint 14">
       <r>  -51.6310    1.0000 </r>
       <r>  -51.6226    1.0000 </r>
       <r>  -27.9135    1.0000 </r>
       <r>  -27.9111    1.0000 </r>
       <r>  -27.8207    1.0000 </r>
       <r>  -27.8182    1.0000 </r>
       <r>  -27.7311    1.0000 </r>
       <r>  -27.7144    1.0000 </r>
       <r>  -12.5599    1.0000 </r>
       <r>  -11.8863    1.0000 </r>
       <r>  -11.2961    1.0000 </r>
       <r>  -11.1759    1.0000 </r>
       <r>    0.0815    1.0000 </r>
       <r>    0.2792    1.0000 </r>
       <r>    1.1333    1.0000 </r>
       <r>    1.4874    1.0000 </r>
       <r>    1.5028    1.0000 </r>
       <r>    2.1722    1.0000 </r>
       <r>    2.4012    1.0000 </r>
       <r>    3.2039    1.0000 </r>
       <r>    3.3842    1.0000 </r>
       <r>    3.9723    1.0000 </r>
       <r>    4.3944    1.0000 </r>
       <r>    4.8781    1.0000 </r>
       <r>    7.6025    0.0000 </r>
       <r>    7.8430    0.0000 </r>
       <r>    8.1634    0.0000 </r>
       <r>    8.2394    0.0000 </r>
      </set>
      <set comment="kpoint 15">
       <r>  -51.6303    1.0000 </r>
       <r>  -51.6233    1.0000 </r>
       <r>  -27.9089    1.0000 </r>
       <r>  -27.9065    1.0000 </r>
       <r>  -27.8256    1.0000 </r>
       <r>  -27.8231    1.0000 </r>
       <r>  -27.7298    1.0000 </r>
       <r>  -27.7157    1.0000 </r>
       <r>  -12.5035    1.0000 </r>
       <r>  -11.9265    1.0000 </r>
       <r>  -11.3046    1.0000 </r>
       <r>  -11.1942    1.0000 </r>
       <r>    0.1423    1.0000 </r>
       <r>    0.3138    1.0000 </r>
       <r>    1.2688    1.0000 </r>
       <r>    1.4922    1.0000 </r>
       <r>    1.5063    1.0000 </r>
       <r>    2.1310    1.0000 </r>
       <r>    2.3461    1.0000 </r>
       <r>    3.0171    1.0000 </r>
       <r>    3.4118    1.0000 </r>
       <r>    3.9069    1.0000 </r>
       <r>    4.3989    1.0000 </r>
       <r>    4.8203    1.0000 </r>
       <r>    7.6457    0.0000 </r>
       <r>    7.8533    0.0000 </r>
       <r>    8.2023    0.0000 </r>
       <r>    8.2718    0.0000 </r>
      </set>
      <set comment="kpoint 16">
       <r>  -51.6296    1.0000 </r>
       <r>  -51.6239    1.0000 </r>
       <r>  -27.9044    1.0000 </r>
       <r>  -27.9020    1.0000 </r>
       <r>  -27.8303    1.0000 </r>
       <r>  -27.8279    1.0000 </r>
       <r>  -27.7284    1.0000 </r>
       <r>  -27.7171    1.0000 </r>
       <r>  -12.4449    1.0000 </r>
       <r>  -11.9730    1.0000 </r>
       <r>  -11.3076    1.0000 </r>
       <r>  -11.2124    1.0000 </r>
       <r>    0.1988    1.0000 </r>
       <r>    0.3416    1.0000 </r>
       <r>    1.4132    1.0000 </r>
       <r>    1.4967    1.0000 </r>
       <r>    1.5089    1.0000 </r>
       <r>    2.0989    1.0000 </r>
       <r>    2.2914    1.0000 </r>
       <r>    2.8301    1.0000 </r>
       <r>    3.4436    1.0000 </r>
       <r>    3.8430    1.0000 </r>
       <r>    4.4132    1.0000 </r>
       <r>    4.7626    1.0000 </r>
       <r>    7.6862    0.0000 </r>
       <r>    7.8571    0.0000 </r>
       <r>    8.2975    0.0000 </r>
       <r>    8.5213    0.0000 </r>
      </set>
      <set comment="kpoint 17">
       <r>  -51.6290    1.0000 </r>
       <r>  -51.6246    1.0000 </r>
       <r>  -27.9002    1.0000 </r>
       <r>  -27.8981    1.0000 </r>
       <r>  -27.8344    1.0000 </r>
       <r>  -27.8322    1.0000 </r>
       <r>  -27.7270    1.0000 </r>
       <r>  -27.7185    1.0000 </r>
       <r>  -12.3847    1.0000 </r>
       <r>  -12.0246    1.0000 </r>
       <r>  -11.3056    1.0000 </r>
       <r>  -11.2302    1.0000 </r>
       <r>    0.2496    1.0000 </r>
       <r>    0.3606    1.0000 </r>
       <r>    1.5008    1.0000 </r>
       <r>    1.5106    1.0000 </r>
       <r>    1.5652    1.0000 </r>
       <r>    2.0766    1.0000 </r>
       <r>    2.2402    1.0000 </r>
       <r>    2.6448    1.0000 </r>
       <r>    3.4797    1.0000 </r>
       <r>    3.7812    1.0000 </r>
       <r>    4.4364    1.0000 </r>
       <r>    4.7057    1.0000 </r>
       <r>    7.7235    0.0000 </r>
       <r>    7.8544    0.0000 </r>
       <r>    8.2700    0.0000 </r>
       <r>    8.3165    0.0000 </r>
      </set>
      <set comment="kpoint 18">
       <r>  -51.6282    1.0000 </r>
       <r>  -51.6253    1.0000 </r>
       <r>  -27.8967    1.0000 </r>
       <r>  -27.8950    1.0000 </r>
       <r>  -27.8376    1.0000 </r>
       <r>  -27.8360    1.0000 </r>
       <r>  -27.7256    1.0000 </r>
       <r>  -27.7199    1.0000 </r>
       <r>  -12.3233    1.0000 </r>
       <r>  -12.0804    1.0000 </r>
       <r>  -11.2995    1.0000 </r>
       <r>  -11.2473    1.0000 </r>
       <r>    0.2932    1.0000 </r>
       <r>    0.3694    1.0000 </r>
       <r>    1.5044    1.0000 </r>
       <r>    1.5111    1.0000 </r>
       <r>    1.7228    1.0000 </r>
       <r>    2.0642    1.0000 </r>
       <r>    2.1963    1.0000 </r>
       <r>    2.4642    1.0000 </r>
       <r>    3.5201    1.0000 </r>
       <r>    3.7221    1.0000 </r>
       <r>    4.4676    1.0000 </r>
       <r>    4.6505    1.0000 </r>
       <r>    7.7571    0.0000 </r>
       <r>    7.8457    0.0000 </r>
       <r>    8.3023    0.0000 </r>
       <r>    8.3275    0.0000 </r>
      </set>
      <set comment="kpoint 19">
       <r>  -51.6275    1.0000 </r>
       <r>  -51.6260    1.0000 </r>
       <r>  -27.8940    1.0000 </r>
       <r>  -27.8931    1.0000 </r>
       <r>  -27.8396    1.0000 </r>
       <r>  -27.8387    1.0000 </r>
       <r>  -27.7242    1.0000 </r>
       <r>  -27.7213    1.0000 </r>
       <r>  -12.2614    1.0000 </r>
       <r>  -12.1391    1.0000 </r>
       <r>  -11.2900    1.0000 </r>
       <r>  -11.2633    1.0000 </r>
       <r>    0.3281    1.0000 </r>
       <r>    0.3670    1.0000 </r>
       <r>    1.5073    1.0000 </r>
       <r>    1.5108    1.0000 </r>
       <r>    1.8802    1.0000 </r>
       <r>    2.0552    1.0000 </r>
       <r>    2.1669    1.0000 </r>
       <r>    2.2961    1.0000 </r>
       <r>    3.5648    1.0000 </r>
       <r>    3.6661    1.0000 </r>
       <r>    4.5056    1.0000 </r>
       <r>    4.5982    1.0000 </r>
       <r>    7.7865    0.0000 </r>
       <r>    7.8312    0.0000 </r>
       <r>    8.3144    0.0000 </r>
       <r>    8.3310    0.0000 </r>
      </set>
      <set comment="kpoint 20">
       <r>  -51.6268    1.0000 </r>
       <r>  -51.6268    1.0000 </r>
       <r>  -27.8928    1.0000 </r>
       <r>  -27.8928    1.0000 </r>
       <r>  -27.8400    1.0000 </r>
       <r>  -27.8400    1.0000 </r>
       <r>  -27.7228    1.0000 </r>
       <r>  -27.7228    1.0000 </r>
       <r>  -12.1998    1.0000 </r>
       <r>  -12.1998    1.0000 </r>
       <r>  -11.2777    1.0000 </r>
       <r>  -11.2777    1.0000 </r>
       <r>    0.3531    1.0000 </r>
       <r>    0.3531    1.0000 </r>
       <r>    1.5095    1.0000 </r>
       <r>    1.5095    1.0000 </r>
       <r>    2.0106    1.0000 </r>
       <r>    2.0106    1.0000 </r>
       <r>    2.1803    1.0000 </r>
       <r>    2.1803    1.0000 </r>
       <r>    3.6136    1.0000 </r>
       <r>    3.6136    1.0000 </r>
       <r>    4.5495    1.0000 </r>
       <r>    4.5495    1.0000 </r>
       <r>    7.8113    0.0000 </r>
       <r>    7.8113    0.0000 </r>
       <r>    8.3260    0.0000 </r>
       <r>    8.3263    0.0000 </r>
      </set>
      <set comment="kpoint 21">
       <r>  -51.6268    1.0000 </r>
       <r>  -51.6268    1.0000 </r>
       <r>  -27.8928    1.0000 </r>
       <r>  -27.8928    1.0000 </r>
       <r>  -27.8400    1.0000 </r>
       <r>  -27.8400    1.0000 </r>
       <r>  -27.7228    1.0000 </r>
       <r>  -27.7228    1.0000 </r>
       <r>  -12.1998    1.0000 </r>
       <r>  -12.1998    1.0000 </r>
       <r>  -11.2777    1.0000 </r>
       <r>  -11.2777    1.0000 </r>
       <r>    0.3531    1.0000 </r>
       <r>    0.3531    1.0000 </r>
       <r>    1.5095    1.0000 </r>
       <r>    1.5095    1.0000 </r>
       <r>    2.0106    1.0000 </r>
       <r>    2.0106    1.0000 </r>
       <r>    2.1803    1.0000 </r>
       <r>    2.1803    1.0000 </r>
       <r>    3.6136    1.0000 </r>
       <r>    3.6136    1.0000 </r>
       <r>    4.5495    1.0000 </r>
       <r>    4.5495    1.0000 </r>
       <r>    7.8113    0.0000 </r>
       <r>    7.8113    0.0000 </r>
       <r>    8.3259    0.0000 </r>
       <r>    8.3264    0.0000 </r>
      </set>
      <set comment="kpoint 22">
       <r>  -51.6268    1.0000 </r>
       <r>  -51.6268    1.0000 </r>
       <r>  -27.8938    1.0000 </r>
       <r>  -27.8938    1.0000 </r>
       <r>  -27.8389    1.0000 </r>
       <r>  -27.8389    1.0000 </r>
       <r>  -27.7228    1.0000 </r>
       <r>  -27.7228    1.0000 </r>
       <r>  -12.2003    1.0000 </r>
       <r>  -12.2003    1.0000 </r>
       <r>  -11.2768    1.0000 </r>
       <r>  -11.2768    1.0000 </r>
       <r>    0.3474    1.0000 </r>
       <r>    0.3474    1.0000 </r>
       <r>    1.5084    1.0000 </r>
       <r>    1.5084    1.0000 </r>
       <r>    1.9907    1.0000 </r>
       <r>    1.9907    1.0000 </r>
       <r>    2.2120    1.0000 </r>
       <r>    2.2120    1.0000 </r>
       <r>    3.6159    1.0000 </r>
       <r>    3.6159    1.0000 </r>
       <r>    4.5442    1.0000 </r>
       <r>    4.5442    1.0000 </r>
       <r>    7.8081    0.0000 </r>
       <r>    7.8081    0.0000 </r>
       <r>    8.3222    0.0000 </r>
       <r>    8.3224    0.0000 </r>
      </set>
      <set comment="kpoint 23">
       <r>  -51.6267    1.0000 </r>
       <r>  -51.6267    1.0000 </r>
       <r>  -27.8968    1.0000 </r>
       <r>  -27.8968    1.0000 </r>
       <r>  -27.8360    1.0000 </r>
       <r>  -27.8360    1.0000 </r>
       <r>  -27.7227    1.0000 </r>
       <r>  -27.7227    1.0000 </r>
       <r>  -12.2021    1.0000 </r>
       <r>  -12.2021    1.0000 </r>
       <r>  -11.2744    1.0000 </r>
       <r>  -11.2744    1.0000 </r>
       <r>    0.3308    1.0000 </r>
       <r>    0.3308    1.0000 </r>
       <r>    1.5054    1.0000 </r>
       <r>    1.5054    1.0000 </r>
       <r>    1.9545    1.0000 </r>
       <r>    1.9545    1.0000 </r>
       <r>    2.2832    1.0000 </r>
       <r>    2.2832    1.0000 </r>
       <r>    3.6229    1.0000 </r>
       <r>    3.6229    1.0000 </r>
       <r>    4.5285    1.0000 </r>
       <r>    4.5285    1.0000 </r>
       <r>    7.7984    0.0000 </r>
       <r>    7.7984    0.0000 </r>
       <r>    8.3113    0.0000 </r>
       <r>    8.3114    0.0000 </r>
      </set>
      <set comment="kpoint 24">
       <r>  -51.6268    1.0000 </r>
       <r>  -51.6268    1.0000 </r>
       <r>  -27.9010    1.0000 </r>
       <r>  -27.9010    1.0000 </r>
       <r>  -27.8318    1.0000 </r>
       <r>  -27.8318    1.0000 </r>
       <r>  -27.7227    1.0000 </r>
       <r>  -27.7227    1.0000 </r>
       <r>  -12.2049    1.0000 </r>
       <r>  -12.2049    1.0000 </r>
       <r>  -11.2705    1.0000 </r>
       <r>  -11.2705    1.0000 </r>
       <r>    0.3039    1.0000 </r>
       <r>    0.3039    1.0000 </r>
       <r>    1.5004    1.0000 </r>
       <r>    1.5004    1.0000 </r>
       <r>    1.9227    1.0000 </r>
       <r>    1.9227    1.0000 </r>
       <r>    2.3718    1.0000 </r>
       <r>    2.3718    1.0000 </r>
       <r>    3.6342    1.0000 </r>
       <r>    3.6342    1.0000 </r>
       <r>    4.5027    1.0000 </r>
       <r>    4.5027    1.0000 </r>
       <r>    7.7823    0.0000 </r>
       <r>    7.7823    0.0000 </r>
       <r>    8.2933    0.0000 </r>
       <r>    8.2935    0.0000 </r>
      </set>
      <set comment="kpoint 25">
       <r>  -51.6268    1.0000 </r>
       <r>  -51.6268    1.0000 </r>
       <r>  -27.9061    1.0000 </r>
       <r>  -27.9061    1.0000 </r>
       <r>  -27.8267    1.0000 </r>
       <r>  -27.8267    1.0000 </r>
       <r>  -27.7227    1.0000 </r>
       <r>  -27.7227    1.0000 </r>
       <r>  -12.2087    1.0000 </r>
       <r>  -12.2087    1.0000 </r>
       <r>  -11.2651    1.0000 </r>
       <r>  -11.2651    1.0000 </r>
       <r>    0.2680    1.0000 </r>
       <r>    0.2680    1.0000 </r>
       <r>    1.4937    1.0000 </r>
       <r>    1.4937    1.0000 </r>
       <r>    1.9012    1.0000 </r>
       <r>    1.9012    1.0000 </r>
       <r>    2.4703    1.0000 </r>
       <r>    2.4703    1.0000 </r>
       <r>    3.6497    1.0000 </r>
       <r>    3.6497    1.0000 </r>
       <r>    4.4679    1.0000 </r>
       <r>    4.4679    1.0000 </r>
       <r>    7.7600    0.0000 </r>
       <r>    7.7600    0.0000 </r>
       <r>    8.2687    0.0000 </r>
       <r>    8.2694    0.0000 </r>
      </set>
      <set comment="kpoint 26">
       <r>  -51.6268    1.0000 </r>
       <r>  -51.6268    1.0000 </r>
       <r>  -27.9116    1.0000 </r>
       <r>  -27.9116    1.0000 </r>
       <r>  -27.8213    1.0000 </r>
       <r>  -27.8213    1.0000 </r>
       <r>  -27.7227    1.0000 </r>
       <r>  -27.7227    1.0000 </r>
       <r>  -12.2134    1.0000 </r>
       <r>  -12.2134    1.0000 </r>
       <r>  -11.2586    1.0000 </r>
       <r>  -11.2586    1.0000 </r>
       <r>    0.2249    1.0000 </r>
       <r>    0.2249    1.0000 </r>
       <r>    1.4855    1.0000 </r>
       <r>    1.4855    1.0000 </r>
       <r>    1.8916    1.0000 </r>
       <r>    1.8916    1.0000 </r>
       <r>    2.5745    1.0000 </r>
       <r>    2.5745    1.0000 </r>
       <r>    3.6689    1.0000 </r>
       <r>    3.6689    1.0000 </r>
       <r>    4.4251    1.0000 </r>
       <r>    4.4251    1.0000 </r>
       <r>    7.7316    0.0000 </r>
       <r>    7.7316    0.0000 </r>
       <r>    8.2387    0.0000 </r>
       <r>    8.2387    0.0000 </r>
      </set>
      <set comment="kpoint 27">
       <r>  -51.6268    1.0000 </r>
       <r>  -51.6268    1.0000 </r>
       <r>  -27.9173    1.0000 </r>
       <r>  -27.9173    1.0000 </r>
       <r>  -27.8156    1.0000 </r>
       <r>  -27.8156    1.0000 </r>
       <r>  -27.7227    1.0000 </r>
       <r>  -27.7227    1.0000 </r>
       <r>  -12.2188    1.0000 </r>
       <r>  -12.2188    1.0000 </r>
       <r>  -11.2511    1.0000 </r>
       <r>  -11.2511    1.0000 </r>
       <r>    0.1762    1.0000 </r>
       <r>    0.1762    1.0000 </r>
       <r>    1.4760    1.0000 </r>
       <r>    1.4760    1.0000 </r>
       <r>    1.8937    1.0000 </r>
       <r>    1.8937    1.0000 </r>
       <r>    2.6814    1.0000 </r>
       <r>    2.6814    1.0000 </r>
       <r>    3.6912    1.0000 </r>
       <r>    3.6912    1.0000 </r>
       <r>    4.3760    1.0000 </r>
       <r>    4.3760    1.0000 </r>
       <r>    7.6975    0.0000 </r>
       <r>    7.6975    0.0000 </r>
       <r>    8.2039    0.0000 </r>
       <r>    8.2040    0.0000 </r>
      </set>
      <set comment="kpoint 28">
       <r>  -51.6269    1.0000 </r>
       <r>  -51.6269    1.0000 </r>
       <r>  -27.9229    1.0000 </r>
       <r>  -27.9229    1.0000 </r>
       <r>  -27.8100    1.0000 </r>
       <r>  -27.8100    1.0000 </r>
       <r>  -27.7227    1.0000 </r>
       <r>  -27.7227    1.0000 </r>
       <r>  -12.2248    1.0000 </r>
       <r>  -12.2248    1.0000 </r>
       <r>  -11.2427    1.0000 </r>
       <r>  -11.2427    1.0000 </r>
       <r>    0.1240    1.0000 </r>
       <r>    0.1240    1.0000 </r>
       <r>    1.4657    1.0000 </r>
       <r>    1.4657    1.0000 </r>
       <r>    1.9070    1.0000 </r>
       <r>    1.9070    1.0000 </r>
       <r>    2.7883    1.0000 </r>
       <r>    2.7883    1.0000 </r>
       <r>    3.7161    1.0000 </r>
       <r>    3.7161    1.0000 </r>
       <r>    4.3224    1.0000 </r>
       <r>    4.3224    1.0000 </r>
       <r>    7.6581    0.0000 </r>
       <r>    7.6581    0.0000 </r>
       <r>    8.1655    0.0000 </r>
       <r>    8.1655    0.0000 </r>
      </set>
      <set comment="kpoint 29">
       <r>  -51.6268    1.0000 </r>
       <r>  -51.6268    1.0000 </r>
       <r>  -27.9284    1.0000 </r>
       <r>  -27.9284    1.0000 </r>
       <r>  -27.8046    1.0000 </r>
       <r>  -27.8046    1.0000 </r>
       <r>  -27.7227    1.0000 </r>
       <r>  -27.7227    1.0000 </r>
       <r>  -12.2310    1.0000 </r>
       <r>  -12.2310    1.0000 </r>
       <r>  -11.2338    1.0000 </r>
       <r>  -11.2338    1.0000 </r>
       <r>    0.0700    1.0000 </r>
       <r>    0.0700    1.0000 </r>
       <r>    1.4547    1.0000 </r>
       <r>    1.4547    1.0000 </r>
       <r>    1.9305    1.0000 </r>
       <r>    1.9305    1.0000 </r>
       <r>    2.8918    1.0000 </r>
       <r>    2.8918    1.0000 </r>
       <r>    3.7429    1.0000 </r>
       <r>    3.7429    1.0000 </r>
       <r>    4.2669    1.0000 </r>
       <r>    4.2669    1.0000 </r>
       <r>    7.6140    0.0000 </r>
       <r>    7.6140    0.0000 </r>
       <r>    8.1245    0.0000 </r>
       <r>    8.1245    0.0000 </r>
      </set>
      <set comment="kpoint 30">
       <r>  -51.6268    1.0000 </r>
       <r>  -51.6268    1.0000 </r>
       <r>  -27.9337    1.0000 </r>
       <r>  -27.9337    1.0000 </r>
       <r>  -27.7993    1.0000 </r>
       <r>  -27.7993    1.0000 </r>
       <r>  -27.7227    1.0000 </r>
       <r>  -27.7227    1.0000 </r>
       <r>  -12.2375    1.0000 </r>
       <r>  -12.2375    1.0000 </r>
       <r>  -11.2247    1.0000 </r>
       <r>  -11.2247    1.0000 </r>
       <r>    0.0159    1.0000 </r>
       <r>    0.0159    1.0000 </r>
       <r>    1.4435    1.0000 </r>
       <r>    1.4435    1.0000 </r>
       <r>    1.9631    1.0000 </r>
       <r>    1.9631    1.0000 </r>
       <r>    2.9882    1.0000 </r>
       <r>    2.9882    1.0000 </r>
       <r>    3.7710    1.0000 </r>
       <r>    3.7710    1.0000 </r>
       <r>    4.2126    1.0000 </r>
       <r>    4.2126    1.0000 </r>
       <r>    7.5658    0.0000 </r>
       <r>    7.5658    0.0000 </r>
       <r>    8.0820    0.0000 </r>
       <r>    8.0820    0.0000 </r>
      </set>
      <set comment="kpoint 31">
       <r>  -51.6268    1.0000 </r>
       <r>  -51.6268    1.0000 </r>
       <r>  -27.9387    1.0000 </r>
       <r>  -27.9387    1.0000 </r>
       <r>  -27.7944    1.0000 </r>
       <r>  -27.7944    1.0000 </r>
       <r>  -27.7227    1.0000 </r>
       <r>  -27.7227    1.0000 </r>
       <r>  -12.2439    1.0000 </r>
       <r>  -12.2439    1.0000 </r>
       <r>  -11.2155    1.0000 </r>
       <r>  -11.2155    1.0000 </r>
       <r>   -0.0368    1.0000 </r>
       <r>   -0.0368    1.0000 </r>
       <r>    1.4324    1.0000 </r>
       <r>    1.4324    1.0000 </r>
       <r>    2.0036    1.0000 </r>
       <r>    2.0036    1.0000 </r>
       <r>    3.0729    1.0000 </r>
       <r>    3.0729    1.0000 </r>
       <r>    3.7996    1.0000 </r>
       <r>    3.7996    1.0000 </r>
       <r>    4.1636    1.0000 </r>
       <r>    4.1636    1.0000 </r>
       <r>    7.5147    0.0000 </r>
       <r>    7.5147    0.0000 </r>
       <r>    8.0393    0.0000 </r>
       <r>    8.0400    0.0000 </r>
      </set>
      <set comment="kpoint 32">
       <r>  -51.6268    1.0000 </r>
       <r>  -51.6268    1.0000 </r>
       <r>  -27.9433    1.0000 </r>
       <r>  -27.9433    1.0000 </r>
       <r>  -27.7899    1.0000 </r>
       <r>  -27.7899    1.0000 </r>
       <r>  -27.7227    1.0000 </r>
       <r>  -27.7227    1.0000 </r>
       <r>  -12.2501    1.0000 </r>
       <r>  -12.2501    1.0000 </r>
       <r>  -11.2065    1.0000 </r>
       <r>  -11.2065    1.0000 </r>
       <r>   -0.0871    1.0000 </r>
       <r>   -0.0871    1.0000 </r>
       <r>    1.4215    1.0000 </r>
       <r>    1.4215    1.0000 </r>
       <r>    2.0509    1.0000 </r>
       <r>    2.0509    1.0000 </r>
       <r>    3.1407    1.0000 </r>
       <r>    3.1407    1.0000 </r>
       <r>    3.8278    1.0000 </r>
       <r>    3.8278    1.0000 </r>
       <r>    4.1246    1.0000 </r>
       <r>    4.1246    1.0000 </r>
       <r>    7.4617    0.0000 </r>
       <r>    7.4617    0.0000 </r>
       <r>    7.9973    0.0000 </r>
       <r>    7.9974    0.0000 </r>
      </set>
      <set comment="kpoint 33">
       <r>  -51.6268    1.0000 </r>
       <r>  -51.6268    1.0000 </r>
       <r>  -27.9474    1.0000 </r>
       <r>  -27.9474    1.0000 </r>
       <r>  -27.7858    1.0000 </r>
       <r>  -27.7858    1.0000 </r>
       <r>  -27.7227    1.0000 </r>
       <r>  -27.7227    1.0000 </r>
       <r>  -12.2560    1.0000 </r>
       <r>  -12.2560    1.0000 </r>
       <r>  -11.1980    1.0000 </r>
       <r>  -11.1980    1.0000 </r>
       <r>   -0.1336    1.0000 </r>
       <r>   -0.1336    1.0000 </r>
       <r>    1.4113    1.0000 </r>
       <r>    1.4113    1.0000 </r>
       <r>    2.1035    1.0000 </r>
       <r>    2.1035    1.0000 </r>
       <r>    3.1866    1.0000 </r>
       <r>    3.1866    1.0000 </r>
       <r>    3.8550    1.0000 </r>
       <r>    3.8550    1.0000 </r>
       <r>    4.1003    1.0000 </r>
       <r>    4.1003    1.0000 </r>
       <r>    7.4082    0.0000 </r>
       <r>    7.4082    0.0000 </r>
       <r>    7.9572    0.0000 </r>
       <r>    7.9572    0.0000 </r>
      </set>
      <set comment="kpoint 34">
       <r>  -51.6268    1.0000 </r>
       <r>  -51.6268    1.0000 </r>
       <r>  -27.9511    1.0000 </r>
       <r>  -27.9511    1.0000 </r>
       <r>  -27.7822    1.0000 </r>
       <r>  -27.7822    1.0000 </r>
       <r>  -27.7227    1.0000 </r>
       <r>  -27.7227    1.0000 </r>
       <r>  -12.2614    1.0000 </r>
       <r>  -12.2614    1.0000 </r>
       <r>  -11.1902    1.0000 </r>
       <r>  -11.1902    1.0000 </r>
       <r>   -0.1755    1.0000 </r>
       <r>   -0.1755    1.0000 </r>
       <r>    1.4019    1.0000 </r>
       <r>    1.4019    1.0000 </r>
       <r>    2.1600    1.0000 </r>
       <r>    2.1600    1.0000 </r>
       <r>    3.2074    1.0000 </r>
       <r>    3.2074    1.0000 </r>
       <r>    3.8805    1.0000 </r>
       <r>    3.8805    1.0000 </r>
       <r>    4.0934    1.0000 </r>
       <r>    4.0934    1.0000 </r>
       <r>    7.3559    0.0000 </r>
       <r>    7.3559    0.0000 </r>
       <r>    7.9201    0.0000 </r>
       <r>    7.9201    0.0000 </r>
      </set>
      <set comment="kpoint 35">
       <r>  -51.6268    1.0000 </r>
       <r>  -51.6268    1.0000 </r>
       <r>  -27.9543    1.0000 </r>
       <r>  -27.9543    1.0000 </r>
       <r>  -27.7790    1.0000 </r>
       <r>  -27.7790    1.0000 </r>
       <r>  -27.7227    1.0000 </r>
       <r>  -27.7227    1.0000 </r>
       <r>  -12.2661    1.0000 </r>
       <r>  -12.2661    1.0000 </r>
       <r>  -11.1832    1.0000 </r>
       <r>  -11.1832    1.0000 </r>
       <r>   -0.2121    1.0000 </r>
       <r>   -0.2121    1.0000 </r>
       <r>    1.3936    1.0000 </r>
       <r>    1.3936    1.0000 </r>
       <r>    2.2186    1.0000 </r>
       <r>    2.2186    1.0000 </r>
       <r>    3.2041    1.0000 </r>
       <r>    3.2041    1.0000 </r>
       <r>    3.9035    1.0000 </r>
       <r>    3.9035    1.0000 </r>
       <r>    4.1029    1.0000 </r>
       <r>    4.1029    1.0000 </r>
       <r>    7.3067    0.0000 </r>
       <r>    7.3067    0.0000 </r>
       <r>    7.8868    0.0000 </r>
       <r>    7.8869    0.0000 </r>
      </set>
      <set comment="kpoint 36">
       <r>  -51.6268    1.0000 </r>
       <r>  -51.6268    1.0000 </r>
       <r>  -27.9569    1.0000 </r>
       <r>  -27.9569    1.0000 </r>
       <r>  -27.7764    1.0000 </r>
       <r>  -27.7764    1.0000 </r>
       <r>  -27.7227    1.0000 </r>
       <r>  -27.7227    1.0000 </r>
       <r>  -12.2702    1.0000 </r>
       <r>  -12.2702    1.0000 </r>
       <r>  -11.1773    1.0000 </r>
       <r>  -11.1773    1.0000 </r>
       <r>   -0.2428    1.0000 </r>
       <r>   -0.2428    1.0000 </r>
       <r>    1.3866    1.0000 </r>
       <r>    1.3866    1.0000 </r>
       <r>    2.2765    1.0000 </r>
       <r>    2.2765    1.0000 </r>
       <r>    3.1822    1.0000 </r>
       <r>    3.1822    1.0000 </r>
       <r>    3.9233    1.0000 </r>
       <r>    3.9233    1.0000 </r>
       <r>    4.1234    1.0000 </r>
       <r>    4.1234    1.0000 </r>
       <r>    7.2625    0.0000 </r>
       <r>    7.2625    0.0000 </r>
       <r>    7.8583    0.0000 </r>
       <r>    7.8583    0.0000 </r>
      </set>
      <set comment="kpoint 37">
       <r>  -51.6267    1.0000 </r>
       <r>  -51.6267    1.0000 </r>
       <r>  -27.9590    1.0000 </r>
       <r>  -27.9590    1.0000 </r>
       <r>  -27.7744    1.0000 </r>
       <r>  -27.7744    1.0000 </r>
       <r>  -27.7227    1.0000 </r>
       <r>  -27.7227    1.0000 </r>
       <r>  -12.2734    1.0000 </r>
       <r>  -12.2734    1.0000 </r>
       <r>  -11.1725    1.0000 </r>
       <r>  -11.1725    1.0000 </r>
       <r>   -0.2672    1.0000 </r>
       <r>   -0.2672    1.0000 </r>
       <r>    1.3810    1.0000 </r>
       <r>    1.3810    1.0000 </r>
       <r>    2.3306    1.0000 </r>
       <r>    2.3306    1.0000 </r>
       <r>    3.1501    1.0000 </r>
       <r>    3.1501    1.0000 </r>
       <r>    3.9394    1.0000 </r>
       <r>    3.9394    1.0000 </r>
       <r>    4.1483    1.0000 </r>
       <r>    4.1483    1.0000 </r>
       <r>    7.2254    0.0000 </r>
       <r>    7.2254    0.0000 </r>
       <r>    7.8354    0.0000 </r>
       <r>    7.8354    0.0000 </r>
      </set>
      <set comment="kpoint 38">
       <r>  -51.6267    1.0000 </r>
       <r>  -51.6267    1.0000 </r>
       <r>  -27.9605    1.0000 </r>
       <r>  -27.9605    1.0000 </r>
       <r>  -27.7729    1.0000 </r>
       <r>  -27.7729    1.0000 </r>
       <r>  -27.7227    1.0000 </r>
       <r>  -27.7227    1.0000 </r>
       <r>  -12.2757    1.0000 </r>
       <r>  -12.2757    1.0000 </r>
       <r>  -11.1690    1.0000 </r>
       <r>  -11.1690    1.0000 </r>
       <r>   -0.2848    1.0000 </r>
       <r>   -0.2848    1.0000 </r>
       <r>    1.3768    1.0000 </r>
       <r>    1.3768    1.0000 </r>
       <r>    2.3761    1.0000 </r>
       <r>    2.3761    1.0000 </r>
       <r>    3.1170    1.0000 </r>
       <r>    3.1170    1.0000 </r>
       <r>    3.9512    1.0000 </r>
       <r>    3.9512    1.0000 </r>
       <r>    4.1710    1.0000 </r>
       <r>    4.1710    1.0000 </r>
       <r>    7.1973    0.0000 </r>
       <r>    7.1973    0.0000 </r>
       <r>    7.8185    0.0000 </r>
       <r>    7.8185    0.0000 </r>
      </set>
      <set comment="kpoint 39">
       <r>  -51.6267    1.0000 </r>
       <r>  -51.6267    1.0000 </r>
       <r>  -27.9614    1.0000 </r>
       <r>  -27.9614    1.0000 </r>
       <r>  -27.7720    1.0000 </r>
       <r>  -27.7720    1.0000 </r>
       <r>  -27.7226    1.0000 </r>
       <r>  -27.7226    1.0000 </r>
       <r>  -12.2771    1.0000 </r>
       <r>  -12.2771    1.0000 </r>
       <r>  -11.1668    1.0000 </r>
       <r>  -11.1668    1.0000 </r>
       <r>   -0.2955    1.0000 </r>
       <r>   -0.2955    1.0000 </r>
       <r>    1.3744    1.0000 </r>
       <r>    1.3744    1.0000 </r>
       <r>    2.4074    1.0000 </r>
       <r>    2.4074    1.0000 </r>
       <r>    3.0921    1.0000 </r>
       <r>    3.0921    1.0000 </r>
[...]
       <r>    0.6916    1.0000 </r>
       <r>    0.6916    1.0000 </r>
       <r>    1.7422    1.0000 </r>
       <r>    1.7422    1.0000 </r>
       <r>    2.6354    1.0000 </r>
       <r>    2.6354    1.0000 </r>
       <r>    3.9107    1.0000 </r>
       <r>    3.9107    1.0000 </r>
       <r>    4.5500    1.0000 </r>
       <r>    4.5500    1.0000 </r>
       <r>    7.9899    0.0000 </r>
       <r>    7.9899    0.0000 </r>
       <r>    8.4539    0.0000 </r>
       <r>    8.4539    0.0000 </r>
      </set>
      <set comment="kpoint 178">
       <r>  -51.5870    1.0000 </r>
       <r>  -51.5870    1.0000 </r>
       <r>  -28.1643    1.0000 </r>
       <r>  -28.1643    1.0000 </r>
       <r>  -27.8153    1.0000 </r>
       <r>  -27.8153    1.0000 </r>
       <r>  -27.7797    1.0000 </r>
       <r>  -27.7797    1.0000 </r>
       <r>  -11.6295    1.0000 </r>
       <r>  -11.6295    1.0000 </r>
       <r>  -11.3927    1.0000 </r>
       <r>  -11.3927    1.0000 </r>
       <r>    0.5122    1.0000 </r>
       <r>    0.5122    1.0000 </r>
       <r>    0.6883    1.0000 </r>
       <r>    0.6883    1.0000 </r>
       <r>    1.7268    1.0000 </r>
       <r>    1.7268    1.0000 </r>
       <r>    2.5755    1.0000 </r>
       <r>    2.5755    1.0000 </r>
       <r>    3.9484    1.0000 </r>
       <r>    3.9484    1.0000 </r>
       <r>    4.5896    1.0000 </r>
       <r>    4.5896    1.0000 </r>
       <r>    7.9408    0.0000 </r>
       <r>    7.9408    0.0000 </r>
       <r>    8.4756    0.0000 </r>
       <r>    8.4757    0.0000 </r>
      </set>
      <set comment="kpoint 179">
       <r>  -51.5862    1.0000 </r>
       <r>  -51.5862    1.0000 </r>
       <r>  -28.1732    1.0000 </r>
       <r>  -28.1732    1.0000 </r>
       <r>  -27.8087    1.0000 </r>
       <r>  -27.8087    1.0000 </r>
       <r>  -27.7834    1.0000 </r>
       <r>  -27.7834    1.0000 </r>
       <r>  -11.6392    1.0000 </r>
       <r>  -11.6392    1.0000 </r>
       <r>  -11.3735    1.0000 </r>
       <r>  -11.3735    1.0000 </r>
       <r>    0.5166    1.0000 </r>
       <r>    0.5166    1.0000 </r>
       <r>    0.6826    1.0000 </r>
       <r>    0.6826    1.0000 </r>
       <r>    1.7214    1.0000 </r>
       <r>    1.7214    1.0000 </r>
       <r>    2.5382    1.0000 </r>
       <r>    2.5382    1.0000 </r>
       <r>    3.9718    1.0000 </r>
       <r>    3.9718    1.0000 </r>
       <r>    4.6131    1.0000 </r>
       <r>    4.6131    1.0000 </r>
       <r>    7.9102    0.0000 </r>
       <r>    7.9102    0.0000 </r>
       <r>    8.4888    0.0000 </r>
       <r>    8.4889    0.0000 </r>
      </set>
      <set comment="kpoint 180">
       <r>  -51.5859    1.0000 </r>
       <r>  -51.5859    1.0000 </r>
       <r>  -28.1762    1.0000 </r>
       <r>  -28.1762    1.0000 </r>
       <r>  -27.8060    1.0000 </r>
       <r>  -27.8060    1.0000 </r>
       <r>  -27.7852    1.0000 </r>
       <r>  -27.7852    1.0000 </r>
       <r>  -11.6424    1.0000 </r>
       <r>  -11.6424    1.0000 </r>
       <r>  -11.3670    1.0000 </r>
       <r>  -11.3670    1.0000 </r>
       <r>    0.5183    1.0000 </r>
       <r>    0.5183    1.0000 </r>
       <r>    0.6801    1.0000 </r>
       <r>    0.6801    1.0000 </r>
       <r>    1.7203    1.0000 </r>
       <r>    1.7203    1.0000 </r>
       <r>    2.5255    1.0000 </r>
       <r>    2.5255    1.0000 </r>
       <r>    3.9798    1.0000 </r>
       <r>    3.9798    1.0000 </r>
       <r>    4.6209    1.0000 </r>
       <r>    4.6209    1.0000 </r>
       <r>    7.8999    0.0000 </r>
       <r>    7.8999    0.0000 </r>
       <r>    8.4933    0.0000 </r>
       <r>    8.4934    0.0000 </r>
      </set>
     </set>
    </set>
   </array>
  </eigenvalues>
  <separator name="orbital magnetization" >
   <v name="MAGDIPOLOUT">      0.00000000      0.00000000      0.00000000</v>
  </separator>
  <dos>
   <i name="efermi">      5.35681071 </i>
   <total>
    <array>
     <dimension dim="1">gridpoints</dimension>
     <dimension dim="2">spin</dimension>
     <field>energy</field>
     <field>total</field>
     <field>integrated</field>
     <set>
      <set comment="spin 1">
       <r>   -54.6612     0.0000     0.0000 </r>
       <r>   -54.4394     0.0000     0.0000 </r>
       <r>   -54.2175     0.0000     0.0000 </r>
       <r>   -53.9956     0.0000     0.0000 </r>
       <r>   -53.7737     0.0000     0.0000 </r>
       <r>   -53.5518     0.0000     0.0000 </r>
       <r>   -53.3300     0.0000     0.0000 </r>
       <r>   -53.1081     0.0000     0.0000 </r>
       <r>   -52.8862     0.0000     0.0000 </r>
       <r>   -52.6643     0.0000     0.0000 </r>
       <r>   -52.4424     0.0000     0.0000 </r>
       <r>   -52.2206     0.0000     0.0000 </r>
       <r>   -51.9987     0.0000     0.0000 </r>
       <r>   -51.7768     0.0000     0.0000 </r>
       <r>   -51.5549    17.4770     4.0000 </r>
       <r>   -51.3331     0.0000     4.0000 </r>
       <r>   -51.1112     0.0000     4.0000 </r>
       <r>   -50.8893     0.0000     4.0000 </r>
       <r>   -50.6674     0.0000     4.0000 </r>
       <r>   -50.4455     0.0000     4.0000 </r>
       <r>   -50.2237     0.0000     4.0000 </r>
       <r>   -50.0018     0.0000     4.0000 </r>
       <r>   -49.7799     0.0000     4.0000 </r>
       <r>   -49.5580     0.0000     4.0000 </r>
       <r>   -49.3362     0.0000     4.0000 </r>
       <r>   -49.1143     0.0000     4.0000 </r>
       <r>   -48.8924     0.0000     4.0000 </r>
       <r>   -48.6705     0.0000     4.0000 </r>
       <r>   -48.4486     0.0000     4.0000 </r>
       <r>   -48.2268     0.0000     4.0000 </r>
       <r>   -48.0049     0.0000     4.0000 </r>
       <r>   -47.7830     0.0000     4.0000 </r>
       <r>   -47.5611     0.0000     4.0000 </r>
       <r>   -47.3393     0.0000     4.0000 </r>
       <r>   -47.1174     0.0000     4.0000 </r>
       <r>   -46.8955     0.0000     4.0000 </r>
       <r>   -46.6736     0.0000     4.0000 </r>
       <r>   -46.4517     0.0000     4.0000 </r>
       <r>   -46.2299     0.0000     4.0000 </r>
       <r>   -46.0080     0.0000     4.0000 </r>
       <r>   -45.7861     0.0000     4.0000 </r>
       <r>   -45.5642     0.0000     4.0000 </r>
       <r>   -45.3423     0.0000     4.0000 </r>
       <r>   -45.1205     0.0000     4.0000 </r>
       <r>   -44.8986     0.0000     4.0000 </r>
       <r>   -44.6767     0.0000     4.0000 </r>
       <r>   -44.4548     0.0000     4.0000 </r>
       <r>   -44.2330     0.0000     4.0000 </r>
       <r>   -44.0111     0.0000     4.0000 </r>
       <r>   -43.7892     0.0000     4.0000 </r>
       <r>   -43.5673     0.0000     4.0000 </r>
       <r>   -43.3454     0.0000     4.0000 </r>
       <r>   -43.1236     0.0000     4.0000 </r>
       <r>   -42.9017     0.0000     4.0000 </r>
       <r>   -42.6798     0.0000     4.0000 </r>
       <r>   -42.4579     0.0000     4.0000 </r>
       <r>   -42.2361     0.0000     4.0000 </r>
       <r>   -42.0142     0.0000     4.0000 </r>
       <r>   -41.7923     0.0000     4.0000 </r>
       <r>   -41.5704     0.0000     4.0000 </r>
       <r>   -41.3485     0.0000     4.0000 </r>
       <r>   -41.1267     0.0000     4.0000 </r>
       <r>   -40.9048     0.0000     4.0000 </r>
       <r>   -40.6829     0.0000     4.0000 </r>
       <r>   -40.4610     0.0000     4.0000 </r>
       <r>   -40.2392     0.0000     4.0000 </r>
       <r>   -40.0173     0.0000     4.0000 </r>
       <r>   -39.7954     0.0000     4.0000 </r>
       <r>   -39.5735     0.0000     4.0000 </r>
       <r>   -39.3516     0.0000     4.0000 </r>
       <r>   -39.1298     0.0000     4.0000 </r>
       <r>   -38.9079     0.0000     4.0000 </r>
       <r>   -38.6860     0.0000     4.0000 </r>
       <r>   -38.4641     0.0000     4.0000 </r>
       <r>   -38.2422     0.0000     4.0000 </r>
       <r>   -38.0204     0.0000     4.0000 </r>
       <r>   -37.7985     0.0000     4.0000 </r>
       <r>   -37.5766     0.0000     4.0000 </r>
       <r>   -37.3547     0.0000     4.0000 </r>
       <r>   -37.1329     0.0000     4.0000 </r>
       <r>   -36.9110     0.0000     4.0000 </r>
       <r>   -36.6891     0.0000     4.0000 </r>
       <r>   -36.4672     0.0000     4.0000 </r>
       <r>   -36.2453     0.0000     4.0000 </r>
       <r>   -36.0235     0.0000     4.0000 </r>
       <r>   -35.8016     0.0000     4.0000 </r>
       <r>   -35.5797     0.0000     4.0000 </r>
       <r>   -35.3578     0.0000     4.0000 </r>
       <r>   -35.1360     0.0000     4.0000 </r>
       <r>   -34.9141     0.0000     4.0000 </r>
       <r>   -34.6922     0.0000     4.0000 </r>
       <r>   -34.4703     0.0000     4.0000 </r>
       <r>   -34.2484     0.0000     4.0000 </r>
       <r>   -34.0266     0.0000     4.0000 </r>
       <r>   -33.8047     0.0000     4.0000 </r>
       <r>   -33.5828     0.0000     4.0000 </r>
       <r>   -33.3609     0.0000     4.0000 </r>
       <r>   -33.1391     0.0000     4.0000 </r>
       <r>   -32.9172     0.0000     4.0000 </r>
       <r>   -32.6953     0.0000     4.0000 </r>
       <r>   -32.4734     0.0000     4.0000 </r>
       <r>   -32.2515     0.0000     4.0000 </r>
       <r>   -32.0297     0.0000     4.0000 </r>
       <r>   -31.8078     0.0000     4.0000 </r>
       <r>   -31.5859     0.0000     4.0000 </r>
       <r>   -31.3640     0.0000     4.0000 </r>
       <r>   -31.1421     0.0000     4.0000 </r>
       <r>   -30.9203     0.0000     4.0000 </r>
       <r>   -30.6984     0.0000     4.0000 </r>
       <r>   -30.4765     0.0000     4.0000 </r>
       <r>   -30.2546     0.0000     4.0000 </r>
       <r>   -30.0328     0.0000     4.0000 </r>
       <r>   -29.8109     0.0000     4.0000 </r>
       <r>   -29.5890     0.0000     4.0000 </r>
       <r>   -29.3671     0.0000     4.0000 </r>
       <r>   -29.1452     0.0000     4.0000 </r>
       <r>   -28.9234     0.0000     4.0000 </r>
       <r>   -28.7015     0.0000     4.0000 </r>
       <r>   -28.4796     0.0000     4.0000 </r>
       <r>   -28.2577     0.0000     4.0000 </r>
       <r>   -28.0359     0.7711     5.8600 </r>
       <r>   -27.8140     6.6737     9.2696 </r>
       <r>   -27.5921     0.0000    16.0000 </r>
       <r>   -27.3702     0.0000    16.0000 </r>
       <r>   -27.1483     0.0000    16.0000 </r>
       <r>   -26.9265     0.0000    16.0000 </r>
       <r>   -26.7046     0.0000    16.0000 </r>
       <r>   -26.4827     0.0000    16.0000 </r>
       <r>   -26.2608     0.0000    16.0000 </r>
       <r>   -26.0389     0.0000    16.0000 </r>
       <r>   -25.8171     0.0000    16.0000 </r>
       <r>   -25.5952     0.0000    16.0000 </r>
       <r>   -25.3733     0.0000    16.0000 </r>
       <r>   -25.1514     0.0000    16.0000 </r>
       <r>   -24.9296     0.0000    16.0000 </r>
       <r>   -24.7077     0.0000    16.0000 </r>
       <r>   -24.4858     0.0000    16.0000 </r>
       <r>   -24.2639     0.0000    16.0000 </r>
       <r>   -24.0420     0.0000    16.0000 </r>
       <r>   -23.8202     0.0000    16.0000 </r>
       <r>   -23.5983     0.0000    16.0000 </r>
       <r>   -23.3764     0.0000    16.0000 </r>
       <r>   -23.1545     0.0000    16.0000 </r>
       <r>   -22.9327     0.0000    16.0000 </r>
       <r>   -22.7108     0.0000    16.0000 </r>
       <r>   -22.4889     0.0000    16.0000 </r>
       <r>   -22.2670     0.0000    16.0000 </r>
       <r>   -22.0451     0.0000    16.0000 </r>
       <r>   -21.8233     0.0000    16.0000 </r>
       <r>   -21.6014     0.0000    16.0000 </r>
       <r>   -21.3795     0.0000    16.0000 </r>
       <r>   -21.1576     0.0000    16.0000 </r>
       <r>   -20.9358     0.0000    16.0000 </r>
       <r>   -20.7139     0.0000    16.0000 </r>
       <r>   -20.4920     0.0000    16.0000 </r>
       <r>   -20.2701     0.0000    16.0000 </r>
       <r>   -20.0482     0.0000    16.0000 </r>
       <r>   -19.8264     0.0000    16.0000 </r>
       <r>   -19.6045     0.0000    16.0000 </r>
       <r>   -19.3826     0.0000    16.0000 </r>
       <r>   -19.1607     0.0000    16.0000 </r>
       <r>   -18.9388     0.0000    16.0000 </r>
       <r>   -18.7170     0.0000    16.0000 </r>
       <r>   -18.4951     0.0000    16.0000 </r>
       <r>   -18.2732     0.0000    16.0000 </r>
       <r>   -18.0513     0.0000    16.0000 </r>
       <r>   -17.8295     0.0000    16.0000 </r>
       <r>   -17.6076     0.0000    16.0000 </r>
       <r>   -17.3857     0.0000    16.0000 </r>
       <r>   -17.1638     0.0000    16.0000 </r>
       <r>   -16.9419     0.0000    16.0000 </r>
       <r>   -16.7201     0.0000    16.0000 </r>
       <r>   -16.4982     0.0000    16.0000 </r>
       <r>   -16.2763     0.0000    16.0000 </r>
       <r>   -16.0544     0.0000    16.0000 </r>
       <r>   -15.8326     0.0000    16.0000 </r>
       <r>   -15.6107     0.0000    16.0000 </r>
       <r>   -15.3888     0.0000    16.0000 </r>
       <r>   -15.1669     0.0000    16.0000 </r>
       <r>   -14.9450     0.0000    16.0000 </r>
       <r>   -14.7232     0.0000    16.0000 </r>
       <r>   -14.5013     0.0000    16.0000 </r>
       <r>   -14.2794     0.0000    16.0000 </r>
       <r>   -14.0575     0.0000    16.0000 </r>
       <r>   -13.8357     0.0000    16.0000 </r>
       <r>   -13.6138     0.0000    16.0000 </r>
       <r>   -13.3919     0.0000    16.0000 </r>
       <r>   -13.1700     0.0000    16.0000 </r>
       <r>   -12.9481     0.1894    16.0420 </r>
       <r>   -12.7263     0.2455    16.2656 </r>
       <r>   -12.5044     0.2118    16.3914 </r>
       <r>   -12.2825     0.4071    16.5570 </r>
       <r>   -12.0606     0.5882    17.4305 </r>
       <r>   -11.8387     2.4835    18.1510 </r>
       <r>   -11.6169     1.9893    19.4969 </r>
       <r>   -11.3950     1.9881    20.5967 </r>
       <r>   -11.1731     3.7606    22.7788 </r>
       <r>   -10.9512     0.0000    24.0000 </r>
       <r>   -10.7294     0.0000    24.0000 </r>
       <r>   -10.5075     0.0000    24.0000 </r>
       <r>   -10.2856     0.0000    24.0000 </r>
       <r>   -10.0637     0.0000    24.0000 </r>
       <r>    -9.8418     0.0000    24.0000 </r>
       <r>    -9.6200     0.0000    24.0000 </r>
       <r>    -9.3981     0.0000    24.0000 </r>
       <r>    -9.1762     0.0000    24.0000 </r>
       <r>    -8.9543     0.0000    24.0000 </r>
       <r>    -8.7325     0.0000    24.0000 </r>
       <r>    -8.5106     0.0000    24.0000 </r>
       <r>    -8.2887     0.0000    24.0000 </r>
       <r>    -8.0668     0.0000    24.0000 </r>
       <r>    -7.8449     0.0000    24.0000 </r>
       <r>    -7.6231     0.0000    24.0000 </r>
       <r>    -7.4012     0.0000    24.0000 </r>
       <r>    -7.1793     0.0000    24.0000 </r>
       <r>    -6.9574     0.0000    24.0000 </r>
       <r>    -6.7355     0.0000    24.0000 </r>
       <r>    -6.5137     0.0000    24.0000 </r>
       <r>    -6.2918     0.0000    24.0000 </r>
       <r>    -6.0699     0.0000    24.0000 </r>
       <r>    -5.8480     0.0000    24.0000 </r>
       <r>    -5.6262     0.0000    24.0000 </r>
       <r>    -5.4043     0.0000    24.0000 </r>
       <r>    -5.1824     0.0000    24.0000 </r>
       <r>    -4.9605     0.0000    24.0000 </r>
       <r>    -4.7386     0.0000    24.0000 </r>
       <r>    -4.5168     0.0000    24.0000 </r>
       <r>    -4.2949     0.0000    24.0000 </r>
       <r>    -4.0730     0.0000    24.0000 </r>
       <r>    -3.8511     0.0000    24.0000 </r>
       <r>    -3.6293     0.0000    24.0000 </r>
       <r>    -3.4074     0.0000    24.0000 </r>
       <r>    -3.1855     0.0000    24.0000 </r>
       <r>    -2.9636     0.0000    24.0000 </r>
       <r>    -2.7417     0.0000    24.0000 </r>
       <r>    -2.5199     0.0000    24.0000 </r>
       <r>    -2.2980     0.0000    24.0000 </r>
       <r>    -2.0761     0.0000    24.0000 </r>
       <r>    -1.8542     0.0000    24.0000 </r>
       <r>    -1.6324     0.0000    24.0000 </r>
       <r>    -1.4105     0.0000    24.0000 </r>
       <r>    -1.1886     0.0000    24.0000 </r>
       <r>    -0.9667     0.0000    24.0000 </r>
       <r>    -0.7448     0.0000    24.0000 </r>
       <r>    -0.5230     0.0671    24.0149 </r>
       <r>    -0.3011     0.7791    24.3395 </r>
       <r>    -0.0792     0.8171    24.9035 </r>
       <r>     0.1427     0.6681    25.2705 </r>
       <r>     0.3646     2.3499    26.5436 </r>
       <r>     0.5864     1.9375    27.5299 </r>
       <r>     0.8083     2.1288    28.6279 </r>
       <r>     1.0302     1.0495    29.1773 </r>
       <r>     1.2521     2.9334    30.4397 </r>
       <r>     1.4739     3.9312    31.9389 </r>
       <r>     1.6958     0.9189    32.9372 </r>
       <r>     1.9177     1.2810    33.8731 </r>
       <r>     2.1396     0.4390    34.9863 </r>
       <r>     2.3615     0.7627    35.5248 </r>
       <r>     2.5833     3.9293    37.0718 </r>
       <r>     2.8052     1.3340    38.3071 </r>
       <r>     3.0271     0.8925    39.1202 </r>
       <r>     3.2490     1.5991    40.0770 </r>
       <r>     3.4708     1.5821    41.3288 </r>
       <r>     3.6927     1.8406    42.2195 </r>
       <r>     3.9146     3.0055    43.6002 </r>
       <r>     4.1365     1.2057    44.6897 </r>
       <r>     4.3584     1.0944    45.7428 </r>
       <r>     4.5802     2.3054    46.8337 </r>
       <r>     4.8021     0.6031    47.4782 </r>
       <r>     5.0240     0.1504    47.7000 </r>
       <r>     5.2459     0.3011    47.8446 </r>
       <r>     5.4677     0.0000    48.0000 </r>
       <r>     5.6896     0.0000    48.0000 </r>
       <r>     5.9115     0.0000    48.0000 </r>
       <r>     6.1334     0.0000    48.0000 </r>
       <r>     6.3553     0.0000    48.0000 </r>
       <r>     6.5771     0.0000    48.0000 </r>
       <r>     6.7990     0.0000    48.0000 </r>
       <r>     7.0209     0.0000    48.0000 </r>
       <r>     7.2428     2.8607    48.7125 </r>
       <r>     7.4647     1.4573    49.4122 </r>
       <r>     7.6865     1.4175    50.2145 </r>
       <r>     7.9084     2.5759    51.9493 </r>
       <r>     8.1303     1.2678    52.9146 </r>
       <r>     8.3522     2.1836    53.9512 </r>
       <r>     8.5740     2.3947    55.6758 </r>
       <r>     8.7959     0.2166    55.9592 </r>
       <r>     9.0178     0.0000    56.0000 </r>
       <r>     9.2397     0.0000    56.0000 </r>
       <r>     9.4616     0.0000    56.0000 </r>
       <r>     9.6834     0.0000    56.0000 </r>
       <r>     9.9053     0.0000    56.0000 </r>
       <r>    10.1272     0.0000    56.0000 </r>
       <r>    10.3491     0.0000    56.0000 </r>
       <r>    10.5709     0.0000    56.0000 </r>
       <r>    10.7928     0.0000    56.0000 </r>
       <r>    11.0147     0.0000    56.0000 </r>
       <r>    11.2366     0.0000    56.0000 </r>
       <r>    11.4585     0.0000    56.0000 </r>
       <r>    11.6803     0.0000    56.0000 </r>
       <r>    11.9022     0.0000    56.0000 </r>
      </set>
     </set>
    </array>
   </total>
  </dos>
 </calculation>
 <structure name="finalpos" >
  <crystal>
   <varray name="basis" >
    <v>       4.58400000       0.00000000       0.00000000 </v>
    <v>       0.00000000       4.58400000       0.00000000 </v>
    <v>       0.00000000       0.00000000       2.95300000 </v>
   </varray>
   <i name="volume">     62.05155437 </i>
   <varray name="rec_basis" >
    <v>       0.21815009       0.00000000       0.00000000 </v>
    <v>       0.00000000       0.21815009       0.00000000 </v>
    <v>       0.00000000       0.00000000       0.33863867 </v>
   </varray>
  </crystal>
  <varray name="positions" >
   <v>       0.00000000       0.00000000       0.00000000 </v>
   <v>       0.50000000       0.50000000       0.50000000 </v>
   <v>       0.19620933       0.80379067       0.50000000 </v>
   <v>       0.80379067       0.19620933       0.50000000 </v>
   <v>       0.30379067       0.30379067       0.00000000 </v>
   <v>       0.69620933       0.69620933       0.00000000 </v>
  </varray>
 </structure>
</modeling>
