TiO2                                    
   1.00000000000000     
     4.584000    0.000000    0.000000
     0.000000    4.584000    0.000000
     0.000000    0.000000    2.953000
   Ti   O 
     2     4
Direct
  0.000000  0.000000  0.000000
  0.500000  0.500000  0.500000
  0.196237  0.803763  0.500000
  0.803763  0.196237  0.500000
  0.303763  0.303763  0.000000
  0.696237  0.696237  0.000000
 
   56   56   32
  931.25      904.37      828.07      714.38      580.13      443.07      318.04      214.49      136.03      81.529    
  47.022      27.371      17.386      12.448      9.6211      7.9613      6.9300      6.1985      5.5922      5.0375    
  4.5170      4.0352      3.5993      3.2159      2.8923      2.6347      2.4468      2.3317      2.2928      2.3317    
  2.4468      2.6347      2.8923      3.2159      3.5993      4.0352      4.5170      5.0375      5.5922      6.1985    
  6.9300      7.9613      9.6211      12.448      17.386      27.371      47.022      81.529      136.03      214.49    
  318.04      443.07      580.13      714.38      828.07      904.37      904.37      878.35      804.51      694.56    
  564.78      432.23      311.12      210.59      134.19      80.984      47.266      28.113      18.438      13.656    
  10.911      9.2935      8.2690      7.5110      6.8470      6.2075      5.5811      4.9783      4.4127      3.8960    
  3.4400      3.0542      2.7446      2.5150      2.3681      2.3042      2.3196      2.4092      2.5691      2.7954    
  3.0832      3.4279      3.8259      4.2741      4.7717      5.3380      6.0447      7.0593      8.6975      11.480    
  16.300      25.922      44.812      78.042      130.68      206.70      307.28      428.95      562.45      693.24    
  803.96      878.21      828.07      804.51      737.34      637.31      519.21      398.44      287.87      195.81    
  125.63      76.681      45.739      28.308      19.599      15.239      12.714      11.212      10.225      9.4391    
  8.6938      7.9306      7.1493      6.3714      5.6201      4.9158      4.2767      3.7174      3.2480      2.8745    
  2.5999      2.4233      2.3392      2.3401      2.4191      2.5704      2.7882      3.0683      3.4090      3.8092    
  4.2700      4.8097      5.4930      6.4716      8.0344      10.662      15.134      23.814      40.837      70.937    
  118.85      188.28      280.33      391.83      514.25      634.23      735.82      803.96      714.38      694.56    
  637.31      551.85      450.77      347.19      252.05      172.57      111.83      69.535      43.011      28.322    
  21.108      17.401      15.248      13.956      13.049      12.238      11.378      10.433      9.4198      8.3807    
  7.3561      6.3807      5.4833      4.6856      4.0020      3.4406      3.0046      2.6918      2.4947      2.4026    
  2.4049      2.4916      2.6542      2.8869      3.1879      3.5567      3.9949      4.5175      5.1783      6.1067    
  7.5533      9.9409      13.917      21.269      35.627      61.215      102.23      161.90      241.19      337.32    
  442.92      546.47      634.23      693.24      580.13      564.78      519.21      450.77      369.53      285.97    
  208.92      144.36      95.042      60.937      39.940      28.682      23.295      20.454      18.865      17.913    
  17.155      16.326      15.306      14.084      12.714      11.271      9.8280      8.4462      7.1724      6.0384    
  5.0622      4.2516      3.6067      3.1217      2.7859      2.5849      2.5030      2.5248      2.6372      2.8310    
  3.1023      3.4496      3.8736      4.3850      5.0244      5.8944      7.2004      9.2951      12.712      18.604    
  29.911      50.246      83.151      131.31      195.46      273.33      358.92      442.92      514.25      562.45    
  443.07      432.23      398.44      347.19      285.97      222.68      164.12      115.04      77.785      52.503    
  37.527      29.995      26.564      24.873      24.105      23.684      23.187      22.362      21.114      19.472    
  17.544      15.463      13.363      11.352      9.5114      7.8877      6.5016      5.3543      4.4356      3.7303    
  3.2201      2.8844      2.7014      2.6491      2.7081      2.8641      3.1090      3.4389      3.8526      4.3554    
  4.9742      5.7836      6.9408      8.7232      11.557      16.124      24.434      39.460      64.081      100.43    
  149.07      208.23      273.33      337.32      391.83      428.95      318.04      311.12      287.87      252.05    
  208.92      164.12      122.65      88.119      62.446      45.772      36.714      32.834      31.462      31.309    
  31.717      32.109      32.046      31.269      29.705      27.435      24.646      21.571      18.442      15.454    
  12.746      10.394      8.4191      6.8071      5.5253      4.5368      3.8068      3.3034      2.9954      2.8530    
  2.8492      2.9626      3.1793      3.4912      3.8940      4.3876      4.9859      5.7365      6.7500      8.2303    
  10.499      14.000      19.765      30.037      47.096      72.608      107.03      149.07      195.46      241.19    
  280.33      307.28      214.49      210.59      195.81      172.57      144.36      115.04      88.119      66.251    
  50.831      41.877      38.160      37.621      38.647      40.532      42.594      44.228      44.913      44.295    
  42.282      39.046      34.944      30.376      25.692      21.223      17.208      13.773      10.945      8.6832    
  6.9137      5.5596      4.5543      3.8439      3.3827      3.1299      3.0494      3.1111      3.2937      3.5831    
  3.9708      4.4513      5.0270      5.7226      6.6064      7.8160      9.5779      12.210      16.154      22.670    
  33.525      50.033      72.608      100.43      131.31      161.90      188.28      206.70      136.03      134.19    
  125.63      111.83      95.042      77.785      62.446      50.831      43.833      41.286      42.061      44.774    
  48.769      53.550      58.415      62.432      64.689      64.548      61.825      56.826      50.253      42.987    
  35.812      29.183      23.275      18.277      14.233      11.067      8.6413      6.8147      5.4666      4.5047    
  3.8591      3.4734      3.2996      3.2978      3.4372      3.6966      4.0619      4.5223      5.0713      5.7146    
  6.4864      7.4686      8.8070      10.716      13.464      17.456      23.790      33.525      47.096      64.081    
  83.151      102.23      118.85      130.68      81.529      80.984      76.681      69.535      60.937      52.503    
  45.772      41.877      41.286      43.685      48.286      54.788      63.131      72.698      82.257      90.242    
  95.151      95.927      92.228      84.512      73.925      62.013      50.314      39.938      31.285      24.142    
  18.430      14.037      10.743      8.3116      6.5410      5.2785      4.4161      3.8742      3.5899      3.5112    
  3.5968      3.8167      4.1503      4.5816      5.0970      5.6888      6.3651      7.1649      8.1709      9.5159    
  11.372      13.925      17.456      22.670      30.037      39.460      50.246      61.215      70.937      78.042    
  47.022      47.266      45.739      43.011      39.940      37.527      36.714      38.160      42.061      48.286    
  57.018      68.817      83.541      100.02      116.24      129.79      138.44      140.61      135.74      124.44    
  108.34      89.800      71.309      54.901      41.649      31.490      23.618      17.636      13.231      10.046    
  7.7649      6.1509      5.0400      4.3203      3.9089      3.7401      3.7609      3.9315      4.2235      4.6154    
  5.0886      5.6265      6.2199      6.8772      7.6354      8.5667      9.7738      11.372      13.464      16.154    
  19.765      24.434      29.911      35.627      40.837      44.812      27.371      28.113      28.308      28.322    
  28.682      29.995      32.834      37.621      44.774      54.788      68.817      87.606      110.59      135.81    
  160.30      180.68      193.91      197.86      191.74      176.25      153.55      126.81      99.603      75.065    
  55.182      40.402      29.746      21.831      16.078      11.990      9.1121      7.0987      5.7123      4.7968    
  4.2448      3.9744      3.9204      4.0323      4.2732      4.6160      5.0380      5.5175      6.0353      6.5804    
  7.1597      7.8039      8.5667      9.5159      10.716      12.210      14.000      16.124      18.604      21.269    
  23.814      25.922      17.386      18.438      19.599      21.108      23.295      26.564      31.462      38.647    
  48.769      63.131      83.541      110.59      143.09      178.17      211.81      239.66      257.88      263.82    
  256.45      236.57      206.79      171.06      134.02      99.959      71.927      51.070      36.608      26.475    
  19.190      14.080      10.538      8.0892      6.4084      5.2861      4.5849      4.2052      4.0688      4.1146    
  4.2969      4.5824      4.9451      5.3609      5.8057      6.2585      6.7082      7.1597      7.6354      8.1709    
  8.8070      9.5779      10.499      11.557      12.712      13.917      15.134      16.300      12.448      13.656    
  15.239      17.401      20.454      24.873      31.309      40.532      53.550      72.698      100.02      135.81    
  178.17      223.25      266.01      301.21      324.31      332.19      323.63      299.54      262.90      218.35    
  171.43      127.52      90.748      63.046      43.988      31.294      22.399      16.214      11.977      9.0791    
  7.0993      5.7688      4.9168      4.4252      4.2029      4.1782      4.2969      4.5198      4.8175      5.1648    
  5.5364      5.9075      6.2585      6.5804      6.8772      7.1649      7.4686      7.8160      8.2303      8.7232    
  9.2951      9.9409      10.662      11.480      9.6211      10.911      12.714      15.248      18.865      24.105    
  31.717      42.594      58.415      82.257      116.24      160.30      211.81      266.01      316.97      358.68    
  386.02      395.53      385.87      358.07      315.43      263.12      207.39      154.52      109.52      75.144    
  51.373      35.911      25.472      18.252      13.346      10.018      7.7534      6.2257      5.2303      4.6305    
  4.3234      4.2276      4.2811      4.4389      4.6688      4.9447      5.2422      5.5364      5.8057      6.0353    
  6.2199      6.3651      6.4864      6.6064      6.7500      6.9408      7.2004      7.5533      8.0344      8.6975    
  7.9613      9.2935      11.212      13.956      17.913      23.684      32.109      44.228      62.432      90.242    
  129.79      180.68      239.66      301.21      358.68      405.45      436.00      446.64      436.00      405.25    
  357.97      299.71      237.18      177.26      125.66      85.745      57.910      39.927      28.140      20.036    
  14.553      10.852      8.3407      6.6408      5.5188      4.8214      4.4356      4.2718      4.2613      4.3546    
  4.5166      4.7211      4.9447      5.1648      5.3609      5.5175      5.6265      5.6888      5.7146      5.7226    
  5.7365      5.7836      5.8944      6.1067      6.4716      7.0593      6.9300      8.2690      10.225      13.049    
  17.155      23.187      32.046      44.913      64.689      95.151      138.44      193.91      257.88      324.31    
  386.02      436.00      468.48      479.65      468.22      435.51      385.33      323.43      256.76      192.51    
  136.75      93.238      62.668      42.903      30.143      21.412      15.510      11.533      8.8358      7.0031    
  5.7805      5.0027      4.5489      4.3235      4.2530      4.2844      4.3812      4.5166      4.6688      4.8175    
  4.9451      5.0380      5.0886      5.0970      5.0713      5.0270      4.9859      4.9742      5.0244      5.1783    
  5.4930      6.0447      6.1985      7.5110      9.4391      12.238      16.326      22.362      31.269      44.295    
  64.548      95.927      140.61      197.86      263.82      332.19      395.53      446.64      479.65      490.80    
  478.89      445.43      394.32      331.38      263.58      198.12      141.12      96.457      64.925      44.468    
  31.283      22.261      16.151      12.027      9.2222      7.3077      6.0187      5.1835      4.6767      4.3992    
  4.2749      4.2491      4.2844      4.3546      4.4389      4.5198      4.5824      4.6160      4.6154      4.5816    
  4.5223      4.4513      4.3876      4.3554      4.3850      4.5175      4.8097      5.3380      5.5922      6.8470    
  8.6938      11.378      15.306      21.114      29.705      42.282      61.825      92.228      135.74      191.74    
  256.45      323.63      385.87      436.00      468.22      478.89      466.98      434.08      384.12      322.81    
  256.95      193.45      138.24      94.976      64.388      44.447      31.463      22.523      16.442      12.317    
  9.4964      7.5595      6.2446      5.3800      4.8393      4.5223      4.3524      4.2749      4.2530      4.2613    
  4.2811      4.2969      4.2969      4.2732      4.2235      4.1503      4.0619      3.9708      3.8940      3.8526    
  3.8736      3.9949      4.2700      4.7717      5.0375      6.2075      7.9306      10.433      14.084      19.472    
  27.435      39.046      56.826      84.512      124.44      176.25      236.57      299.54      358.07      405.25    
  435.51      445.43      434.08      403.10      356.30      299.13      238.02      179.42      128.74      89.189    
  61.263      42.920      30.707      22.210      16.391      12.413      9.6722      7.7775      6.4821      5.6207    
  5.0688      4.7278      4.5223      4.3992      4.3235      4.2718      4.2276      4.1782      4.1146      4.0323    
  3.9315      3.8167      3.6966      3.5831      3.4912      3.4389      3.4496      3.5567      3.8092      4.2741    
  4.5170      5.5811      7.1493      9.4198      12.714      17.544      24.646      34.944      50.253      73.925    
  108.34      153.55      206.79      262.90      315.43      357.97      385.33      394.32      384.12      356.30    
  314.41      263.55      209.57      158.25      114.25      80.185      56.174      40.176      29.154      21.405    
  16.050      12.354      9.7854      7.9992      6.7729      5.9516      5.4155      5.0688      4.8393      4.6767    
  4.5489      4.4356      4.3234      4.2029      4.0688      3.9204      3.7609      3.5968      3.4372      3.2937    
  3.1793      3.1090      3.1023      3.1879      3.4090      3.8259      4.0352      4.9783      6.3714      8.3807    
  11.271      15.463      21.571      30.376      42.987      62.013      89.800      126.81      171.06      218.35    
  263.12      299.71      323.43      331.38      322.81      299.13      263.55      220.61      175.46      133.01    
  97.047      69.449      49.962      36.601      27.031      20.248      15.511      12.208      9.8959      8.2851    
  7.1810      6.4412      5.9516      5.6207      5.3800      5.1835      5.0027      4.8214      4.6305      4.4252    
  4.2052      3.9744      3.7401      3.5112      3.2978      3.1111      2.9626      2.8641      2.8310      2.8869    
  3.0683      3.4279      3.5993      4.4127      5.6201      7.3561      9.8280      13.363      18.442      25.692    
  35.812      50.314      71.309      99.603      134.02      171.43      207.39      237.18      256.76      263.58    
  256.95      238.02      209.57      175.46      139.97      107.04      79.485      58.468      43.426      32.578    
  24.609      18.911      14.892      12.067      10.088      8.7191      7.7936      7.1810      6.7729      6.4821    
  6.2446      6.0187      5.7805      5.5188      5.2303      4.9168      4.5849      4.2448      3.9089      3.5899    
  3.2996      3.0494      2.8492      2.7081      2.6372      2.6542      2.7882      3.0832      3.2159      3.8960    
  4.9158      6.3807      8.4462      11.352      15.454      21.223      29.183      39.938      54.901      75.065    
  99.959      127.52      154.52      177.26      192.51      198.12      193.45      179.42      158.25      133.01    
  107.04      83.239      63.500      48.365      37.092      28.513      22.158      17.577      14.326      12.043    
  10.466      9.4056      8.7191      8.2851      7.9992      7.7775      7.5595      7.3077      7.0031      6.6408    
  6.2257      5.7688      5.2861      4.7968      4.3203      3.8742      3.4734      3.1299      2.8530      2.6491    
  2.5248      2.4916      2.5704      2.7954      2.8923      3.4400      4.2767      5.4833      7.1724      9.5114    
  12.746      17.208      23.275      31.285      41.649      55.182      71.927      90.748      109.52      125.66    
  136.75      141.12      138.24      128.74      114.25      97.047      79.485      63.500      50.187      39.637    
  31.244      24.744      19.907      16.412      13.946      12.255      11.145      10.466      10.088      9.8959    
  9.7854      9.6722      9.4964      9.2222      8.8358      8.3407      7.7534      7.0993      6.4084      5.7123    
  5.0400      4.4161      3.8591      3.3827      2.9954      2.7014      2.5030      2.4049      2.4191      2.5691    
  2.6347      3.0542      3.7174      4.6856      6.0384      7.8877      10.394      13.773      18.277      24.142    
  31.490      40.402      51.070      63.046      75.144      85.745      93.238      96.457      94.976      89.189    
  80.185      69.449      58.468      48.365      39.637      32.228      26.187      21.505      18.030      15.555    
  13.878      12.825      12.255      12.043      12.067      12.208      12.354      12.413      12.317      12.027    
  11.533      10.852      10.018      9.0791      8.0892      7.0987      6.1509      5.2785      4.5047      3.8439    
  3.3034      2.8844      2.5849      2.4026      2.3401      2.4092      2.4468      2.7446      3.2480      4.0020    
  5.0622      6.5016      8.4191      10.945      14.233      18.430      23.618      29.746      36.608      43.988    
  51.373      57.910      62.668      64.925      64.388      61.263      56.174      49.962      43.426      37.092    
  31.244      26.187      22.075      18.918      16.637      15.114      14.232      13.878      13.946      14.326    
  14.892      15.511      16.050      16.391      16.442      16.151      15.510      14.553      13.346      11.977    
  10.538      9.1121      7.7649      6.5410      5.4666      4.5543      3.8068      3.2201      2.7859      2.4947    
  2.3392      2.3196      2.3317      2.5150      2.8745      3.4406      4.2516      5.3543      6.8071      8.6832    
  11.067      14.037      17.636      21.831      26.475      31.294      35.911      39.927      42.903      44.468    
  44.447      42.920      40.176      36.601      32.578      28.513      24.744      21.505      18.918      17.018    
  15.784      15.169      15.114      15.555      16.412      17.577      18.911      20.248      21.405      22.210    
  22.523      22.261      21.412      20.036      18.252      16.214      14.080      11.990      10.046      8.3116    
  6.8147      5.5596      4.5368      3.7303      3.1217      2.6918      2.4233      2.3042      2.2928      2.3681    
  2.5999      3.0046      3.6067      4.4356      5.5253      6.9137      8.6413      10.743      13.231      16.078    
  19.190      22.399      25.472      28.140      30.143      31.283      31.463      30.707      29.154      27.031    
  24.609      22.158      19.907      18.030      16.637      15.784      15.498      15.784      16.637      18.030    
  19.907      22.158      24.609      27.031      29.154      30.707      31.463      31.283      30.143      28.140    
  25.472      22.399      19.190      16.078      13.231      10.743      8.6413      6.9137      5.5253      4.4356    
  3.6067      3.0046      2.5999      2.3681      2.3317      2.3042      2.4233      2.6918      3.1217      3.7303    
  4.5368      5.5596      6.8147      8.3116      10.046      11.990      14.080      16.214      18.252      20.036    
  21.412      22.261      22.523      22.210      21.405      20.248      18.911      17.577      16.412      15.555    
  15.114      15.169      15.784      17.018      18.918      21.505      24.744      28.513      32.578      36.601    
  40.176      42.920      44.447      44.468      42.903      39.927      35.911      31.294      26.475      21.831    
  17.636      14.037      11.067      8.6832      6.8071      5.3543      4.2516      3.4406      2.8745      2.5150    
  2.4468      2.3196      2.3392      2.4947      2.7859      3.2201      3.8068      4.5543      5.4666      6.5410    
  7.7649      9.1121      10.538      11.977      13.346      14.553      15.510      16.151      16.442      16.391    
  16.050      15.511      14.892      14.326      13.946      13.878      14.232      15.114      16.637      18.918    
  22.075      26.187      31.244      37.092      43.426      49.962      56.174      61.263      64.388      64.925    
  62.668      57.910      51.373      43.988      36.608      29.746      23.618      18.430      14.233      10.945    
  8.4191      6.5016      5.0622      4.0020      3.2480      2.7446      2.6347      2.4092      2.3401      2.4026    
  2.5849      2.8844      3.3034      3.8439      4.5047      5.2785      6.1509      7.0987      8.0892      9.0791    
  10.018      10.852      11.533      12.027      12.317      12.413      12.354      12.208      12.067      12.043    
  12.255      12.825      13.878      15.555      18.030      21.505      26.187      32.228      39.637      48.365    
  58.468      69.449      80.185      89.189      94.976      96.457      93.238      85.745      75.144      63.046    
  51.070      40.402      31.490      24.142      18.277      13.773      10.394      7.8877      6.0384      4.6856    
  3.7174      3.0542      2.8923      2.5691      2.4191      2.4049      2.5030      2.7014      2.9954      3.3827    
  3.8591      4.4161      5.0400      5.7123      6.4084      7.0993      7.7534      8.3407      8.8358      9.2222    
  9.4964      9.6722      9.7854      9.8959      10.088      10.466      11.145      12.255      13.946      16.412    
  19.907      24.744      31.244      39.637      50.187      63.500      79.485      97.047      114.25      128.74    
  138.24      141.12      136.75      125.66      109.52      90.748      71.927      55.182      41.649      31.285    
  23.275      17.208      12.746      9.5114      7.1724      5.4833      4.2767      3.4400      3.2159      2.7954    
  2.5704      2.4916      2.5248      2.6491      2.8530      3.1299      3.4734      3.8742      4.3203      4.7968    
  5.2861      5.7688      6.2257      6.6408      7.0031      7.3077      7.5595      7.7775      7.9992      8.2851    
  8.7191      9.4056      10.466      12.043      14.326      17.577      22.158      28.513      37.092      48.365    
  63.500      83.239      107.04      133.01      158.25      179.42      193.45      198.12      192.51      177.26    
  154.52      127.52      99.959      75.065      54.901      39.938      29.183      21.223      15.454      11.352    
  8.4462      6.3807      4.9158      3.8960      3.5993      3.0832      2.7882      2.6542      2.6372      2.7081    
  2.8492      3.0494      3.2996      3.5899      3.9089      4.2448      4.5849      4.9168      5.2303      5.5188    
  5.7805      6.0187      6.2446      6.4821      6.7729      7.1810      7.7936      8.7191      10.088      12.067    
  14.892      18.911      24.609      32.578      43.426      58.468      79.485      107.04      139.97      175.46    
  209.57      238.02      256.95      263.58      256.76      237.18      207.39      171.43      134.02      99.603    
  71.309      50.314      35.812      25.692      18.442      13.363      9.8280      7.3561      5.6201      4.4127    
  4.0352      3.4279      3.0683      2.8869      2.8310      2.8641      2.9626      3.1111      3.2978      3.5112    
  3.7401      3.9744      4.2052      4.4252      4.6305      4.8214      5.0027      5.1835      5.3800      5.6207    
  5.9516      6.4412      7.1810      8.2851      9.8959      12.208      15.511      20.248      27.031      36.601    
  49.962      69.449      97.047      133.01      175.46      220.61      263.55      299.13      322.81      331.38    
  323.43      299.71      263.12      218.35      171.06      126.81      89.800      62.013      42.987      30.376    
  21.571      15.463      11.271      8.3807      6.3714      4.9783      4.5170      3.8259      3.4090      3.1879    
  3.1023      3.1090      3.1793      3.2937      3.4372      3.5968      3.7609      3.9204      4.0688      4.2029    
  4.3234      4.4356      4.5489      4.6767      4.8393      5.0688      5.4155      5.9516      6.7729      7.9992    
  9.7854      12.354      16.050      21.405      29.154      40.176      56.174      80.185      114.25      158.25    
  209.57      263.55      314.41      356.30      384.12      394.32      385.33      357.97      315.43      262.90    
  206.79      153.55      108.34      73.925      50.253      34.944      24.646      17.544      12.714      9.4198    
  7.1493      5.5811      5.0375      4.2741      3.8092      3.5567      3.4496      3.4389      3.4912      3.5831    
  3.6966      3.8167      3.9315      4.0323      4.1146      4.1782      4.2276      4.2718      4.3235      4.3992    
  4.5223      4.7278      5.0688      5.6207      6.4821      7.7775      9.6722      12.413      16.391      22.210    
  30.707      42.920      61.263      89.189      128.74      179.42      238.02      299.13      356.30      403.10    
  434.08      445.43      435.51      405.25      358.07      299.54      236.57      176.25      124.44      84.512    
  56.826      39.046      27.435      19.472      14.084      10.433      7.9306      6.2075      5.5922      4.7717    
  4.2700      3.9949      3.8736      3.8526      3.8940      3.9708      4.0619      4.1503      4.2235      4.2732    
  4.2969      4.2969      4.2811      4.2613      4.2530      4.2749      4.3524      4.5223      4.8393      5.3800    
  6.2446      7.5595      9.4964      12.317      16.442      22.523      31.463      44.447      64.388      94.976    
  138.24      193.45      256.95      322.81      384.12      434.08      466.98      478.89      468.22      436.00    
  385.87      323.63      256.45      191.74      135.74      92.228      61.825      42.282      29.705      21.114    
  15.306      11.378      8.6938      6.8470      6.1985      5.3380      4.8097      4.5175      4.3850      4.3554    
  4.3876      4.4513      4.5223      4.5816      4.6154      4.6160      4.5824      4.5198      4.4389      4.3546    
  4.2844      4.2491      4.2749      4.3992      4.6767      5.1835      6.0187      7.3077      9.2222      12.027    
  16.151      22.261      31.283      44.468      64.925      96.457      141.12      198.12      263.58      331.38    
  394.32      445.43      478.89      490.80      479.65      446.64      395.53      332.19      263.82      197.86    
  140.61      95.927      64.548      44.295      31.269      22.362      16.326      12.238      9.4391      7.5110    
  6.9300      6.0447      5.4930      5.1783      5.0244      4.9742      4.9859      5.0270      5.0713      5.0970    
  5.0886      5.0380      4.9451      4.8175      4.6688      4.5166      4.3812      4.2844      4.2530      4.3235    
  4.5489      5.0027      5.7805      7.0031      8.8358      11.533      15.510      21.412      30.143      42.903    
  62.668      93.238      136.75      192.51      256.76      323.43      385.33      435.51      468.22      479.65    
  468.48      436.00      386.02      324.31      257.88      193.91      138.44      95.151      64.689      44.913    
  32.046      23.187      17.155      13.049      10.225      8.2690      7.9613      7.0593      6.4716      6.1067    
  5.8944      5.7836      5.7365      5.7226      5.7146      5.6888      5.6265      5.5175      5.3609      5.1648    
  4.9447      4.7211      4.5166      4.3546      4.2613      4.2718      4.4356      4.8214      5.5188      6.6408    
  8.3407      10.852      14.553      20.036      28.140      39.927      57.910      85.745      125.66      177.26    
  237.18      299.71      357.97      405.25      436.00      446.64      436.00      405.45      358.68      301.21    
  239.66      180.68      129.79      90.242      62.432      44.228      32.109      23.684      17.913      13.956    
  11.212      9.2935      9.6211      8.6975      8.0344      7.5533      7.2004      6.9408      6.7500      6.6064    
  6.4864      6.3651      6.2199      6.0353      5.8057      5.5364      5.2422      4.9447      4.6688      4.4389    
  4.2811      4.2276      4.3234      4.6305      5.2303      6.2257      7.7534      10.018      13.346      18.252    
  25.472      35.911      51.373      75.144      109.52      154.52      207.39      263.12      315.43      358.07    
  385.87      395.53      386.02      358.68      316.97      266.01      211.81      160.30      116.24      82.257    
  58.415      42.594      31.717      24.105      18.865      15.248      12.714      10.911      12.448      11.480    
  10.662      9.9409      9.2951      8.7232      8.2303      7.8160      7.4686      7.1649      6.8772      6.5804    
  6.2585      5.9075      5.5364      5.1648      4.8175      4.5198      4.2969      4.1782      4.2029      4.4252    
  4.9168      5.7688      7.0993      9.0791      11.977      16.214      22.399      31.294      43.988      63.046    