   6   6   0   0
  0.1034193E+02  0.4584000E-09  0.4584000E-09  0.2953000E-09  0.5000000E-15
  1.000000000000000E-004
  CAR 
 TiO2                                    
     12.48227969    -55.43623278  301      5.74702721      1.00000000
    -55.436  0.0000E+00  0.0000E+00
    -55.210  0.0000E+00  0.0000E+00
    -54.983  0.0000E+00  0.0000E+00
    -54.757  0.0000E+00  0.0000E+00
    -54.531  0.0000E+00  0.0000E+00
    -54.304  0.0000E+00  0.0000E+00
    -54.078  0.0000E+00  0.0000E+00
    -53.851  0.0000E+00  0.0000E+00
    -53.625  0.0000E+00  0.0000E+00
    -53.399  0.0000E+00  0.0000E+00
    -53.172  0.0000E+00  0.0000E+00
    -52.946  0.0000E+00  0.0000E+00
    -52.719  0.0000E+00  0.0000E+00
    -52.493  0.0000E+00  0.0000E+00
    -52.267  0.1730E+02  0.4000E+01
    -52.040  0.0000E+00  0.4000E+01
    -51.814  0.0000E+00  0.4000E+01
    -51.588  0.0000E+00  0.4000E+01
    -51.361  0.0000E+00  0.4000E+01
    -51.135  0.0000E+00  0.4000E+01
    -50.908  0.0000E+00  0.4000E+01
    -50.682  0.0000E+00  0.4000E+01
    -50.456  0.0000E+00  0.4000E+01
    -50.229  0.0000E+00  0.4000E+01
    -50.003  0.0000E+00  0.4000E+01
    -49.776  0.0000E+00  0.4000E+01
    -49.550  0.0000E+00  0.4000E+01
    -49.324  0.0000E+00  0.4000E+01
    -49.097  0.0000E+00  0.4000E+01
    -48.871  0.0000E+00  0.4000E+01
    -48.644  0.0000E+00  0.4000E+01
    -48.418  0.0000E+00  0.4000E+01
    -48.192  0.0000E+00  0.4000E+01
    -47.965  0.0000E+00  0.4000E+01
    -47.739  0.0000E+00  0.4000E+01
    -47.512  0.0000E+00  0.4000E+01
    -47.286  0.0000E+00  0.4000E+01
    -47.060  0.0000E+00  0.4000E+01
    -46.833  0.0000E+00  0.4000E+01
    -46.607  0.0000E+00  0.4000E+01
    -46.380  0.0000E+00  0.4000E+01
    -46.154  0.0000E+00  0.4000E+01
    -45.928  0.0000E+00  0.4000E+01
    -45.701  0.0000E+00  0.4000E+01
    -45.475  0.0000E+00  0.4000E+01
    -45.248  0.0000E+00  0.4000E+01
    -45.022  0.0000E+00  0.4000E+01
    -44.796  0.0000E+00  0.4000E+01
    -44.569  0.0000E+00  0.4000E+01
    -44.343  0.0000E+00  0.4000E+01
    -44.116  0.0000E+00  0.4000E+01
    -43.890  0.0000E+00  0.4000E+01
    -43.664  0.0000E+00  0.4000E+01
    -43.437  0.0000E+00  0.4000E+01
    -43.211  0.0000E+00  0.4000E+01
    -42.985  0.0000E+00  0.4000E+01
    -42.758  0.0000E+00  0.4000E+01
    -42.532  0.0000E+00  0.4000E+01
    -42.305  0.0000E+00  0.4000E+01
    -42.079  0.0000E+00  0.4000E+01
    -41.853  0.0000E+00  0.4000E+01
    -41.626  0.0000E+00  0.4000E+01
    -41.400  0.0000E+00  0.4000E+01
    -41.173  0.0000E+00  0.4000E+01
    -40.947  0.0000E+00  0.4000E+01
    -40.721  0.0000E+00  0.4000E+01
    -40.494  0.0000E+00  0.4000E+01
    -40.268  0.0000E+00  0.4000E+01
    -40.041  0.0000E+00  0.4000E+01
    -39.815  0.0000E+00  0.4000E+01
    -39.589  0.0000E+00  0.4000E+01
    -39.362  0.0000E+00  0.4000E+01
    -39.136  0.0000E+00  0.4000E+01
    -38.909  0.0000E+00  0.4000E+01
    -38.683  0.0000E+00  0.4000E+01
    -38.457  0.0000E+00  0.4000E+01
    -38.230  0.0000E+00  0.4000E+01
    -38.004  0.0000E+00  0.4000E+01
    -37.777  0.0000E+00  0.4000E+01
    -37.551  0.0000E+00  0.4000E+01
    -37.325  0.0000E+00  0.4000E+01
    -37.098  0.0000E+00  0.4000E+01
    -36.872  0.0000E+00  0.4000E+01
    -36.645  0.0000E+00  0.4000E+01
    -36.419  0.0000E+00  0.4000E+01
    -36.193  0.0000E+00  0.4000E+01
    -35.966  0.0000E+00  0.4000E+01
    -35.740  0.0000E+00  0.4000E+01
    -35.513  0.0000E+00  0.4000E+01
    -35.287  0.0000E+00  0.4000E+01
    -35.061  0.0000E+00  0.4000E+01
    -34.834  0.0000E+00  0.4000E+01
    -34.608  0.0000E+00  0.4000E+01
    -34.381  0.0000E+00  0.4000E+01
    -34.155  0.0000E+00  0.4000E+01
    -33.929  0.0000E+00  0.4000E+01
    -33.702  0.0000E+00  0.4000E+01
    -33.476  0.0000E+00  0.4000E+01
    -33.250  0.0000E+00  0.4000E+01
    -33.023  0.0000E+00  0.4000E+01
    -32.797  0.0000E+00  0.4000E+01
    -32.570  0.0000E+00  0.4000E+01
    -32.344  0.0000E+00  0.4000E+01
    -32.118  0.0000E+00  0.4000E+01
    -31.891  0.0000E+00  0.4000E+01
    -31.665  0.0000E+00  0.4000E+01
    -31.438  0.0000E+00  0.4000E+01
    -31.212  0.0000E+00  0.4000E+01
    -30.986  0.0000E+00  0.4000E+01
    -30.759  0.0000E+00  0.4000E+01
    -30.533  0.0000E+00  0.4000E+01
    -30.306  0.0000E+00  0.4000E+01
    -30.080  0.0000E+00  0.4000E+01
    -29.854  0.0000E+00  0.4000E+01
    -29.627  0.0000E+00  0.4000E+01
    -29.401  0.0000E+00  0.4000E+01
    -29.174  0.0000E+00  0.4000E+01
    -28.948  0.0000E+00  0.4000E+01
    -28.722  0.2777E+01  0.5295E+01
    -28.495  0.1429E+02  0.1020E+02
    -28.269  0.0000E+00  0.1600E+02
    -28.042  0.0000E+00  0.1600E+02
    -27.816  0.0000E+00  0.1600E+02
    -27.590  0.0000E+00  0.1600E+02
    -27.363  0.0000E+00  0.1600E+02
    -27.137  0.0000E+00  0.1600E+02
    -26.910  0.0000E+00  0.1600E+02
    -26.684  0.0000E+00  0.1600E+02
    -26.458  0.0000E+00  0.1600E+02
    -26.231  0.0000E+00  0.1600E+02
    -26.005  0.0000E+00  0.1600E+02
    -25.778  0.0000E+00  0.1600E+02
    -25.552  0.0000E+00  0.1600E+02
    -25.326  0.0000E+00  0.1600E+02
    -25.099  0.0000E+00  0.1600E+02
    -24.873  0.0000E+00  0.1600E+02
    -24.647  0.0000E+00  0.1600E+02
    -24.420  0.0000E+00  0.1600E+02
    -24.194  0.0000E+00  0.1600E+02
    -23.967  0.0000E+00  0.1600E+02
    -23.741  0.0000E+00  0.1600E+02
    -23.515  0.0000E+00  0.1600E+02
    -23.288  0.0000E+00  0.1600E+02
    -23.062  0.0000E+00  0.1600E+02
    -22.835  0.0000E+00  0.1600E+02
    -22.609  0.0000E+00  0.1600E+02
    -22.383  0.0000E+00  0.1600E+02
    -22.156  0.0000E+00  0.1600E+02
    -21.930  0.0000E+00  0.1600E+02
    -21.703  0.0000E+00  0.1600E+02
    -21.477  0.0000E+00  0.1600E+02
    -21.251  0.0000E+00  0.1600E+02
    -21.024  0.0000E+00  0.1600E+02
    -20.798  0.0000E+00  0.1600E+02
    -20.571  0.0000E+00  0.1600E+02
    -20.345  0.0000E+00  0.1600E+02
    -20.119  0.0000E+00  0.1600E+02
    -19.892  0.0000E+00  0.1600E+02
    -19.666  0.0000E+00  0.1600E+02
    -19.439  0.0000E+00  0.1600E+02
    -19.213  0.0000E+00  0.1600E+02
    -18.987  0.0000E+00  0.1600E+02
    -18.760  0.0000E+00  0.1600E+02
    -18.534  0.0000E+00  0.1600E+02
    -18.307  0.0000E+00  0.1600E+02
    -18.081  0.0000E+00  0.1600E+02
    -17.855  0.0000E+00  0.1600E+02
    -17.628  0.0000E+00  0.1600E+02
    -17.402  0.0000E+00  0.1600E+02
    -17.175  0.0000E+00  0.1600E+02
    -16.949  0.0000E+00  0.1600E+02
    -16.723  0.0000E+00  0.1600E+02
    -16.496  0.0000E+00  0.1600E+02
    -16.270  0.0000E+00  0.1600E+02
    -16.043  0.0000E+00  0.1600E+02
    -15.817  0.0000E+00  0.1600E+02
    -15.591  0.0000E+00  0.1600E+02
    -15.364  0.0000E+00  0.1600E+02
    -15.138  0.0000E+00  0.1600E+02
    -14.912  0.0000E+00  0.1600E+02
    -14.685  0.0000E+00  0.1600E+02
    -14.459  0.0000E+00  0.1600E+02
    -14.232  0.0000E+00  0.1600E+02
    -14.006  0.0000E+00  0.1600E+02
    -13.780  0.0000E+00  0.1600E+02
    -13.553  0.0000E+00  0.1600E+02
    -13.327  0.0000E+00  0.1600E+02
    -13.100  0.0000E+00  0.1600E+02
    -12.874  0.0000E+00  0.1600E+02
    -12.648  0.1636E+00  0.1605E+02
    -12.421  0.5634E-01  0.1611E+02
    -12.195  0.1636E+00  0.1640E+02
    -11.968  0.8180E+00  0.1690E+02
    -11.742  0.3285E+00  0.1751E+02
    -11.516  0.2940E+01  0.1877E+02
    -11.289  0.9649E+00  0.2000E+02
    -11.063  0.5810E+01  0.2261E+02
    -10.836  0.4055E+00  0.2400E+02
    -10.610  0.0000E+00  0.2400E+02
    -10.384  0.0000E+00  0.2400E+02
    -10.157  0.0000E+00  0.2400E+02
     -9.931  0.0000E+00  0.2400E+02
     -9.704  0.0000E+00  0.2400E+02
     -9.478  0.0000E+00  0.2400E+02
     -9.252  0.0000E+00  0.2400E+02
     -9.025  0.0000E+00  0.2400E+02
     -8.799  0.0000E+00  0.2400E+02
     -8.572  0.0000E+00  0.2400E+02
     -8.346  0.0000E+00  0.2400E+02
     -8.120  0.0000E+00  0.2400E+02
     -7.893  0.0000E+00  0.2400E+02
     -7.667  0.0000E+00  0.2400E+02
     -7.440  0.0000E+00  0.2400E+02
     -7.214  0.0000E+00  0.2400E+02
     -6.988  0.0000E+00  0.2400E+02
     -6.761  0.0000E+00  0.2400E+02
     -6.535  0.0000E+00  0.2400E+02
     -6.309  0.0000E+00  0.2400E+02
     -6.082  0.0000E+00  0.2400E+02
     -5.856  0.0000E+00  0.2400E+02
     -5.629  0.0000E+00  0.2400E+02
     -5.403  0.0000E+00  0.2400E+02
     -5.177  0.0000E+00  0.2400E+02
     -4.950  0.0000E+00  0.2400E+02
     -4.724  0.0000E+00  0.2400E+02
     -4.497  0.0000E+00  0.2400E+02
     -4.271  0.0000E+00  0.2400E+02
     -4.045  0.0000E+00  0.2400E+02
     -3.818  0.0000E+00  0.2400E+02
     -3.592  0.0000E+00  0.2400E+02
     -3.365  0.0000E+00  0.2400E+02
     -3.139  0.0000E+00  0.2400E+02
     -2.913  0.0000E+00  0.2400E+02
     -2.686  0.0000E+00  0.2400E+02
     -2.460  0.0000E+00  0.2400E+02
     -2.233  0.0000E+00  0.2400E+02
     -2.007  0.0000E+00  0.2400E+02
     -1.781  0.0000E+00  0.2400E+02
     -1.554  0.0000E+00  0.2400E+02
     -1.328  0.0000E+00  0.2400E+02
     -1.101  0.0000E+00  0.2400E+02
     -0.875  0.0000E+00  0.2400E+02
     -0.649  0.0000E+00  0.2400E+02
     -0.422  0.0000E+00  0.2400E+02
     -0.196  0.0000E+00  0.2401E+02
      0.031  0.2454E+00  0.2414E+02
      0.257  0.7771E+00  0.2448E+02
      0.483  0.1246E+01  0.2523E+02
      0.710  0.7449E+00  0.2587E+02
      0.936  0.3380E+01  0.2763E+02
      1.163  0.3503E+01  0.2939E+02
      1.389  0.2944E+00  0.3030E+02
      1.615  0.4244E+00  0.3162E+02
      1.842  0.1439E+01  0.3284E+02
      2.068  0.1473E+01  0.3345E+02
      2.295  0.1072E+01  0.3453E+02
      2.521  0.2328E+01  0.3554E+02
      2.747  0.1526E+01  0.3637E+02
      2.974  0.2455E+01  0.3766E+02
      3.200  0.2497E+01  0.3900E+02
      3.426  0.2486E+01  0.4002E+02
      3.653  0.9913E+00  0.4134E+02
      3.879  0.1335E+01  0.4227E+02
      4.106  0.1870E+01  0.4352E+02
      4.332  0.7481E+00  0.4471E+02
      4.558  0.2300E+01  0.4580E+02
      4.785  0.1497E+01  0.4704E+02
      5.011  0.6544E+00  0.4755E+02
      5.238  0.4908E+00  0.4782E+02
      5.464  0.2455E+00  0.4795E+02
      5.690  0.0000E+00  0.4800E+02
      5.917  0.0000E+00  0.4800E+02
      6.143  0.0000E+00  0.4800E+02
      6.370  0.0000E+00  0.4800E+02
      6.596  0.0000E+00  0.4800E+02
      6.822  0.0000E+00  0.4800E+02
      7.049  0.0000E+00  0.4800E+02
      7.275  0.0000E+00  0.4800E+02
      7.502  0.0000E+00  0.4800E+02
      7.728  0.0000E+00  0.4800E+02
      7.954  0.1417E+00  0.4803E+02
      8.181  0.1687E+01  0.4856E+02
      8.407  0.2095E+01  0.4944E+02
      8.634  0.2954E+01  0.5102E+02
      8.860  0.3017E+01  0.5252E+02
      9.086  0.1212E+01  0.5370E+02
      9.313  0.1106E+01  0.5496E+02
      9.539  0.0000E+00  0.5600E+02
      9.766  0.0000E+00  0.5600E+02
      9.992  0.0000E+00  0.5600E+02
     10.218  0.0000E+00  0.5600E+02
     10.445  0.0000E+00  0.5600E+02
     10.671  0.0000E+00  0.5600E+02
     10.898  0.0000E+00  0.5600E+02
     11.124  0.0000E+00  0.5600E+02
     11.350  0.0000E+00  0.5600E+02
     11.577  0.0000E+00  0.5600E+02
     11.803  0.0000E+00  0.5600E+02
     12.029  0.0000E+00  0.5600E+02
     12.256  0.0000E+00  0.5600E+02
     12.482  0.0000E+00  0.5600E+02
