 vasp.6.2.0 18Jan21 (build Oct 14 2021 17:49:53) complex                        
  
 executed on             LinuxIFC date 2022.04.02  12:29:09
 running on    4 total cores
 distrk:  each k-point on    4 cores,    1 groups
 distr:  one band on NCORE=   1 cores,    4 groups


--------------------------------------------------------------------------------------------------------


 INCAR:
   SYSTEM = TiO2
   ISTART = 0
   ICHARG = 0
   ISMEAR = 0
   SIGMA = 0.01
   LOUT = 10
   ENCUT = 500
   EDIFF = 0.1E-04
   LDAU = .TRUE.
   LDAUTYPE = 2
   LDAUL = 2 -1
   LDAUU = 3.90 0.00
   LDAUJ = 0.00 0.00
   LDAUPRINT = 2
   LMAXMIX = 4

 POTCAR:    PAW_PBE Ti_sv 26Sep2005               
 POTCAR:   PAW_PBE O_s 07Sep2000                  
 POTCAR:    PAW_PBE Ti_sv 26Sep2005               
   SHA256 =  4d747badb5a5ea28d858fbac70885b3f8929d6fd9e5b0dbe1ecb9878dc164da1 Ti_sv/POTCAR          
   COPYR  = (c) Copyright 26Sep2005 Georg Kresse                                                    
   COPYR  = This file is part of the software VASP. Any use, copying, and all other rights are regul
   COPYR  = If you do not have a valid VASP license, you may not use, copy or distribute this file. 
   VRHFIN =Ti: 3p4s3d                                                                               
   LEXCH  = PE                                                                                      
   EATOM  =  1588.0892 eV,  116.7213 Ry                                                             
                                                                                                    
   TITEL  = PAW_PBE Ti_sv 26Sep2005                                                                 
   LULTRA =        F    use ultrasoft PP ?                                                          
   IUNSCR =        1    unscreen: 0-lin 1-nonlin 2-no                                               
   RPACOR =    2.000    partial core radius                                                         
   POMASS =   47.880; ZVAL   =   12.000    mass and valenz                                          
   RCORE  =    2.300    outmost cutoff radius                                                       
   RWIGS  =    2.300; RWIGS  =    1.217    wigner-seitz radius (au A)                               
   ENMAX  =  274.610; ENMIN  =  205.957 eV                                                          
   ICORE  =        3    local potential                                                             
   LCOR   =        T    correct aug charges                                                         
   LPAW   =        T    paw PP                                                                      
   EAUG   =  482.848                                                                                
   RMAX   =    2.348    core radius for proj-oper                                                   
   RAUG   =    1.300    factor for augmentation sphere                                              
   RDEP   =    2.381    radius for radial grids                                                     
   RDEPT  =    1.930    core radius for aug-charge                                                  
                                                                                                    
   Atomic configuration                                                                             
    8 entries                                                                                       
     n  l   j            E        occ.                                                              
     1  0  0.50     -4865.3608   2.0000                                                             
     2  0  0.50      -533.1368   2.0000                                                             
     2  1  1.50      -440.5031   6.0000                                                             
     3  0  0.50       -59.3186   2.0000                                                             
     4  0  0.50        -3.7291   1.0000                                                             
     3  1  1.50       -35.7012   6.0000                                                             
     3  2  2.50        -1.9157   3.0000                                                             
     4  3  2.50        -1.3606   0.0000                                                             
   Description                                                                                      
     l       E           TYP  RCUT    TYP  RCUT                                                     
     0    -59.3185931     23  1.800                                                                 
     0     -3.7290822     23  2.300                                                                 
     1    -35.7012045     23  2.300                                                                 
     1     -1.3605826     23  2.300                                                                 
     2     -1.9156920     23  2.300                                                                 
     2     -0.0236318     23  2.300                                                                 
     3     -1.3605826     23  2.300                                                                 
  local pseudopotential read in
  partial core-charges read in
  partial kinetic energy density read in
  atomic valenz-charges read in
  non local Contribution for L=           0  read in
    real space projection operators read in
  non local Contribution for L=           0  read in
    real space projection operators read in
  non local Contribution for L=           1  read in
    real space projection operators read in
  non local Contribution for L=           1  read in
    real space projection operators read in
  non local Contribution for L=           2  read in
    real space projection operators read in
  non local Contribution for L=           2  read in
    real space projection operators read in
    PAW grid and wavefunctions read in
 
   number of l-projection  operators is LMAX  =           6
   number of lm-projection operators is LMMAX =          18
 
 POTCAR:   PAW_PBE O_s 07Sep2000                  
   SHA256 =  e7f4e16ee7752e7dead62f07b2b95b8f91122148deae9dd89b96c576b0e91599 O_s/POTCAR            
   COPYR  = (c) Copyright 07Sep2000 Georg Kresse                                                    
   COPYR  = This file is part of the software VASP. Any use, copying, and all other rights are regul
   COPYR  = If you do not have a valid VASP license, you may not use, copy or distribute this file. 
   VRHFIN =O: s2p4                                                                                  
   LEXCH  = PE                                                                                      
   EATOM  =   432.3788 eV,   31.7789 Ry                                                             
                                                                                                    
   TITEL  = PAW_PBE O_s 07Sep2000                                                                   
   LULTRA =        F    use ultrasoft PP ?                                                          
   IUNSCR =        0    unscreen: 0-lin 1-nonlin 2-no                                               
   RPACOR =    0.000    partial core radius                                                         
   POMASS =   16.000; ZVAL   =    6.000    mass and valenz                                          
   RCORE  =    1.850    outmost cutoff radius                                                       
   RWIGS  =    1.700; RWIGS  =    0.900    wigner-seitz radius (au A)                               
   ENMAX  =  282.853; ENMIN  =  212.140 eV                                                          
   RCLOC  =    0.804    cutoff for local pot                                                        
   LCOR   =        T    correct aug charges                                                         
   LPAW   =        T    paw PP                                                                      
   EAUG   =  412.352                                                                                
   RMAX   =    1.897    core radius for proj-oper                                                   
   RAUG   =    1.300    factor for augmentation sphere                                              
   RDEP   =    1.878    radius for radial grids                                                     
   RDEPT  =    1.572    core radius for aug-charge                                                  
                                                                                                    
   Atomic configuration                                                                             
    4 entries                                                                                       
     n  l   j            E        occ.                                                              
     1  0  0.50      -514.6923   2.0000                                                             
     2  0  0.50       -23.9615   2.0000                                                             
     2  1  0.50        -9.0305   4.0000                                                             
     3  2  1.50        -1.3606   0.0000                                                             
   Description                                                                                      
     l       E           TYP  RCUT    TYP  RCUT                                                     
     0    -23.9615315     23  1.500                                                                 
     0    -25.3221141     23  1.500                                                                 
     1     -9.0304908     23  1.850                                                                 
     1     -7.3935399     23  1.850                                                                 
  local pseudopotential read in
  atomic valenz-charges read in
  non local Contribution for L=           0  read in
    real space projection operators read in
  non local Contribution for L=           0  read in
    real space projection operators read in
  non local Contribution for L=           1  read in
    real space projection operators read in
  non local Contribution for L=           1  read in
    real space projection operators read in
    PAW grid and wavefunctions read in
 
   number of l-projection  operators is LMAX  =           4
   number of lm-projection operators is LMMAX =           8
 
  PAW_PBE Ti_sv 26Sep2005               :
 energy of atom  1       EATOM=-1588.0892
 kinetic energy error for atom=    0.0046 (will be added to EATOM!!)
 PAW_PBE O_s 07Sep2000                  :
 energy of atom  2       EATOM= -432.3788
 kinetic energy error for atom=    0.0065 (will be added to EATOM!!)
 
 
 POSCAR: Rutile TiO2
  positions in direct lattice
  velocities in cartesian coordinates
 exchange correlation table for  LEXCH =        8
   RHO(1)=    0.500       N(1)  =     2000
   RHO(2)=  100.500       N(2)  =     4000
 


--------------------------------------------------------------------------------------------------------


 ion  position               nearest neighbor table
   1  0.000  0.000  0.000-   3 1.95   4 1.95   3 1.95   4 1.95   5 1.97   6 1.97
   2  0.500  0.500  0.500-   5 1.95   6 1.95   5 1.95   6 1.95   3 1.97   4 1.97
   3  0.196  0.804  0.500-   1 1.95   1 1.95   2 1.97
   4  0.804  0.196  0.500-   1 1.95   1 1.95   2 1.97
   5  0.304  0.304  0.000-   2 1.95   2 1.95   1 1.97
   6  0.696  0.696  0.000-   2 1.95   2 1.95   1 1.97
 
  LATTYP: Found a simple tetragonal cell.
 ALAT       =     4.5840000000
 C/A-ratio  =     0.6441972077
  
  Lattice vectors:
  
 A1 = (   4.5840000000,   0.0000000000,   0.0000000000)
 A2 = (   0.0000000000,   4.5840000000,   0.0000000000)
 A3 = (   0.0000000000,   0.0000000000,   2.9530000000)


Analysis of symmetry for initial positions (statically):
=====================================================================
 Subroutine PRICEL returns:
 Original cell was already a primitive cell.
 

 Routine SETGRP: Setting up the symmetry group for a 
 simple tetragonal supercell.


 Subroutine GETGRP returns: Found 16 space group operations
 (whereof  8 operations were pure point group operations)
 out of a pool of 16 trial point group operations.


The static configuration has the point symmetry D_2h.
 The point group associated with its full space group is D_4h.


Analysis of symmetry for dynamics (positions and initial velocities):
=====================================================================
 Subroutine PRICEL returns:
 Original cell was already a primitive cell.
 

 Routine SETGRP: Setting up the symmetry group for a 
 simple tetragonal supercell.


 Subroutine GETGRP returns: Found 16 space group operations
 (whereof  8 operations were pure point group operations)
 out of a pool of 16 trial point group operations.


The dynamic configuration has the point symmetry D_2h.
 The point group associated with its full space group is D_4h.


 Subroutine INISYM returns: Found 16 space group operations
 (whereof  8 operations are pure point group operations),
 and found     1 'primitive' translations


----------------------------------------------------------------------------------------

                                     Primitive cell                                     

  volume of cell :      62.0516

  direct lattice vectors                    reciprocal lattice vectors
     4.584000000  0.000000000  0.000000000     0.218150087  0.000000000  0.000000000
     0.000000000  4.584000000  0.000000000     0.000000000  0.218150087  0.000000000
     0.000000000  0.000000000  2.953000000     0.000000000  0.000000000  0.338638673

  length of vectors
     4.584000000  4.584000000  2.953000000     0.218150087  0.218150087  0.338638673

  position of ions in fractional coordinates (direct lattice)
     0.000000000  0.000000000  0.000000000
     0.500000000  0.500000000  0.500000000
     0.196236862  0.803763138  0.500000000
     0.803763138  0.196236862  0.500000000
     0.303763138  0.303763138  0.000000000
     0.696236862  0.696236862  0.000000000

  ion indices of the primitive-cell ions
   primitive index   ion index
                 1           1
                 2           2
                 3           3
                 4           4
                 5           5
                 6           6

----------------------------------------------------------------------------------------

 
 
 KPOINTS: Automatic KPOINTS generation            

Automatic generation of k-mesh.
 Grid dimensions read from file:
 generate k-points for:    6    6    6

 Generating k-lattice:

  Cartesian coordinates                     Fractional coordinates (reciprocal lattice)
     0.036358348  0.000000000  0.000000000     0.166666667  0.000000000  0.000000000
     0.000000000  0.036358348  0.000000000     0.000000000  0.166666667  0.000000000
     0.000000000  0.000000000  0.056439779     0.000000000  0.000000000  0.166666667

  Length of vectors
     0.036358348  0.036358348  0.056439779

  Shift w.r.t. Gamma in fractional coordinates (k-lattice)
     0.000000000  0.000000000  0.000000000

 
 Subroutine IBZKPT returns following result:
 ===========================================
 
 Found     40 irreducible k-points:
 
 Following reciprocal coordinates:
            Coordinates               Weight
  0.000000  0.000000  0.000000      1.000000
  0.166667  0.000000  0.000000      4.000000
  0.333333  0.000000  0.000000      4.000000
  0.500000  0.000000  0.000000      2.000000
  0.166667  0.166667  0.000000      4.000000
  0.333333  0.166667  0.000000      8.000000
  0.500000  0.166667  0.000000      4.000000
  0.333333  0.333333  0.000000      4.000000
  0.500000  0.333333  0.000000      4.000000
  0.500000  0.500000  0.000000      1.000000
  0.000000  0.000000  0.166667      2.000000
  0.166667  0.000000  0.166667      8.000000
  0.333333  0.000000  0.166667      8.000000
  0.500000  0.000000  0.166667      4.000000
  0.166667  0.166667  0.166667      8.000000
  0.333333  0.166667  0.166667     16.000000
  0.500000  0.166667  0.166667      8.000000
  0.333333  0.333333  0.166667      8.000000
  0.500000  0.333333  0.166667      8.000000
  0.500000  0.500000  0.166667      2.000000
  0.000000  0.000000  0.333333      2.000000
  0.166667  0.000000  0.333333      8.000000
  0.333333  0.000000  0.333333      8.000000
  0.500000  0.000000  0.333333      4.000000
  0.166667  0.166667  0.333333      8.000000
  0.333333  0.166667  0.333333     16.000000
  0.500000  0.166667  0.333333      8.000000
  0.333333  0.333333  0.333333      8.000000
  0.500000  0.333333  0.333333      8.000000
  0.500000  0.500000  0.333333      2.000000
  0.000000  0.000000  0.500000      1.000000
  0.166667  0.000000  0.500000      4.000000
  0.333333  0.000000  0.500000      4.000000
  0.500000  0.000000  0.500000      2.000000
  0.166667  0.166667  0.500000      4.000000
  0.333333  0.166667  0.500000      8.000000
  0.500000  0.166667  0.500000      4.000000
  0.333333  0.333333  0.500000      4.000000
  0.500000  0.333333  0.500000      4.000000
  0.500000  0.500000  0.500000      1.000000
 
 Following cartesian coordinates:
            Coordinates               Weight
  0.000000  0.000000  0.000000      1.000000
  0.036358  0.000000  0.000000      4.000000
  0.072717  0.000000  0.000000      4.000000
  0.109075  0.000000  0.000000      2.000000
  0.036358  0.036358  0.000000      4.000000
  0.072717  0.036358  0.000000      8.000000
  0.109075  0.036358  0.000000      4.000000
  0.072717  0.072717  0.000000      4.000000
  0.109075  0.072717  0.000000      4.000000
  0.109075  0.109075  0.000000      1.000000
  0.000000  0.000000  0.056440      2.000000
  0.036358  0.000000  0.056440      8.000000
  0.072717  0.000000  0.056440      8.000000
  0.109075  0.000000  0.056440      4.000000
  0.036358  0.036358  0.056440      8.000000
  0.072717  0.036358  0.056440     16.000000
  0.109075  0.036358  0.056440      8.000000
  0.072717  0.072717  0.056440      8.000000
  0.109075  0.072717  0.056440      8.000000
  0.109075  0.109075  0.056440      2.000000
  0.000000  0.000000  0.112880      2.000000
  0.036358  0.000000  0.112880      8.000000
  0.072717  0.000000  0.112880      8.000000
  0.109075  0.000000  0.112880      4.000000
  0.036358  0.036358  0.112880      8.000000
  0.072717  0.036358  0.112880     16.000000
  0.109075  0.036358  0.112880      8.000000
  0.072717  0.072717  0.112880      8.000000
  0.109075  0.072717  0.112880      8.000000
  0.109075  0.109075  0.112880      2.000000
  0.000000  0.000000  0.169319      1.000000
  0.036358  0.000000  0.169319      4.000000
  0.072717  0.000000  0.169319      4.000000
  0.109075  0.000000  0.169319      2.000000
  0.036358  0.036358  0.169319      4.000000
  0.072717  0.036358  0.169319      8.000000
  0.109075  0.036358  0.169319      4.000000
  0.072717  0.072717  0.169319      4.000000
  0.109075  0.072717  0.169319      4.000000
  0.109075  0.109075  0.169319      1.000000
 


--------------------------------------------------------------------------------------------------------




 Dimension of arrays:
   k-points           NKPTS =     40   k-points in BZ     NKDIM =     40   number of bands    NBANDS=     28
   number of dos      NEDOS =    301   number of ions     NIONS =      6
   non local maximal  LDIM  =      6   non local SUM 2l+1 LMDIM =     18
   total plane-waves  NPLWV =  12544
   max r-space proj   IRMAX =      1   max aug-charges    IRDMAX=   8047
   dimension x,y,z NGX =    28 NGY =   28 NGZ =   16
   dimension x,y,z NGXF=    56 NGYF=   56 NGZF=   32
   support grid    NGXF=    56 NGYF=   56 NGZF=   32
   ions per type =               2   4
   NGX,Y,Z   is equivalent  to a cutoff of  10.15, 10.15,  9.01 a.u.
   NGXF,Y,Z  is equivalent  to a cutoff of  20.31, 20.31, 18.02 a.u.

 SYSTEM =  TiO2                                    
 POSCAR =  Rutile TiO2                             

 Startparameter for this run:
   NWRITE =      2    write-flag & timer
   PREC   = normal    normal or accurate (medium, high low for compatibility)
   ISTART =      0    job   : 0-new  1-cont  2-samecut
   ICHARG =      0    charge: 1-file 2-atom 10-const
   ISPIN  =      1    spin polarized calculation?
   LNONCOLLINEAR =      F non collinear calculations
   LSORBIT =      F    spin-orbit coupling
   INIWAV =      1    electr: 0-lowe 1-rand  2-diag
   LASPH  =      F    aspherical Exc in radial PAW
   METAGGA=      F    non-selfconsistent MetaGGA calc.

 Electronic Relaxation 1
   ENCUT  =  500.0 eV  36.75 Ry    6.06 a.u.   8.36  8.36  5.38*2*pi/ulx,y,z
   ENINI  =  500.0     initial cutoff
   ENAUG  =  482.8 eV  augmentation charge cutoff
   NELM   =     60;   NELMIN=  2; NELMDL= -5     # of ELM steps 
   EDIFF  = 0.1E-04   stopping-criterion for ELM
   LREAL  =      F    real-space projection
   NLSPLINE    = F    spline interpolate recip. space projectors
   LCOMPAT=      F    compatible to vasp.4.4
   GGA_COMPAT  = T    GGA compatible to vasp.4.4-vasp.4.6
   LMAXPAW     = -100 max onsite density
   LMAXMIX     =    4 max onsite mixed and CHGCAR
   VOSKOWN=      0    Vosko Wilk Nusair interpolation
   ROPT   =    0.00000   0.00000
 Ionic relaxation
   EDIFFG = 0.1E-03   stopping-criterion for IOM
   NSW    =      0    number of steps for IOM
   NBLOCK =      1;   KBLOCK =      1    inner block; outer block 
   IBRION =     -1    ionic relax: 0-MD 1-quasi-New 2-CG
   NFREE  =      0    steps in history (QN), initial steepest desc. (CG)
   ISIF   =      2    stress and relaxation
   IWAVPR =     10    prediction:  0-non 1-charg 2-wave 3-comb
   ISYM   =      2    0-nonsym 1-usesym 2-fastsym
   LCORR  =      T    Harris-Foulkes like correction to forces

   POTIM  = 0.5000    time-step for ionic-motion
   TEIN   =    0.0    initial temperature
   TEBEG  =    0.0;   TEEND  =   0.0 temperature during run
   SMASS  =  -3.00    Nose mass-parameter (am)
   estimated Nose-frequenzy (Omega)   =  0.10E-29 period in steps = 0.13E+47 mass=  -0.480E-27a.u.
   SCALEE = 1.0000    scale energy and forces
   NPACO  =    256;   APACO  = 16.0  distance and # of slots for P.C.
   PSTRESS=    0.0 pullay stress

  Mass of Ions in am
   POMASS =  47.88 16.00
  Ionic Valenz
   ZVAL   =  12.00  6.00
  Atomic Wigner-Seitz radii
   RWIGS  =  -1.00 -1.00
  virtual crystal weights 
   VCA    =   1.00  1.00
   NELECT =      48.0000    total number of electrons
   NUPDOWN=      -1.0000    fix difference up-down

 DOS related values:
   EMIN   =  10.00;   EMAX   =-10.00  energy-range for DOS
   EFERMI =   0.00
   ISMEAR =     0;   SIGMA  =   0.01  broadening in eV -4-tet -1-fermi 0-gaus

 Electronic relaxation 2 (details)
   IALGO  =     38    algorithm
   LDIAG  =      T    sub-space diagonalisation (order eigenvalues)
   LSUBROT=      F    optimize rotation matrix (better conditioning)
   TURBO    =      0    0=normal 1=particle mesh
   IRESTART =      0    0=no restart 2=restart with 2 vectors
   NREBOOT  =      0    no. of reboots
   NMIN     =      0    reboot dimension
   EREF     =   0.00    reference energy to select bands
   IMIX   =      4    mixing-type and parameters
     AMIX     =   0.40;   BMIX     =  1.00
     AMIX_MAG =   1.60;   BMIX_MAG =  1.00
     AMIN     =   0.10
     WC   =   100.;   INIMIX=   1;  MIXPRE=   1;  MAXMIX= -45

 Intra band minimization:
   WEIMIN = 0.0000     energy-eigenvalue tresh-hold
   EBREAK =  0.89E-07  absolut break condition
   DEPER  =   0.30     relativ break condition  

   TIME   =   0.40     timestep for ELM

  volume/ion in A,a.u.               =      10.34        69.79
  Fermi-wavevector in a.u.,A,eV,Ry     =   1.502811  2.839901 30.727952  2.258441
  Thomas-Fermi vector in A             =   2.614003
 
 Write flags
   LWAVE        =      T    write WAVECAR
   LDOWNSAMPLE  =      F    k-point downsampling of WAVECAR
   LCHARG       =      T    write CHGCAR
   LVTOT        =      F    write LOCPOT, total local potential
   LVHAR        =      F    write LOCPOT, Hartree potential only
   LELF         =      F    write electronic localiz. function (ELF)
   LORBIT       =      0    0 simple, 1 ext, 2 COOP (PROOUT), +10 PAW based schemes


 Dipole corrections
   LMONO  =      F    monopole corrections only (constant potential shift)
   LDIPOL =      F    correct potential (dipole corrections)
   IDIPOL =      0    1-x, 2-y, 3-z, 4-all directions 
   EPSILON=  1.0000000 bulk dielectric constant

 LDA+U is selected, type is set to LDAUTYPE =  2
   angular momentum for each species LDAUL =     2   -1
   U (eV)           for each species LDAUU =   3.9  0.0
   J (eV)           for each species LDAUJ =   0.0  0.0
 Exchange correlation treatment:
   GGA     =    --    GGA type
   LEXCH   =     8    internal setting for exchange type
   VOSKOWN=      0    Vosko Wilk Nusair interpolation
   LHFCALC =     F    Hartree Fock is set to
   LHFONE  =     F    Hartree Fock one center treatment
   AEXX    =    0.0000 exact exchange contribution

 Linear response parameters
   LEPSILON=     F    determine dielectric tensor
   LRPA    =     F    only Hartree local field effects (RPA)
   LNABLA  =     F    use nabla operator in PAW spheres
   LVEL    =     F    velocity operator in full k-point grid
   LINTERFAST=   F  fast interpolation
   KINTER  =     0    interpolate to denser k-point grid
   CSHIFT  =0.1000    complex shift for real part using Kramers Kronig
   OMEGAMAX=  -1.0    maximum frequency
   DEG_THRESHOLD= 0.2000000E-02 threshold for treating states as degnerate
   RTIME   =   -0.100 relaxation time in fs
  (WPLASMAI=    0.000 imaginary part of plasma frequency in eV, 0.658/RTIME)
   DFIELD  = 0.0000000 0.0000000 0.0000000 field for delta impulse in time
 
 Orbital magnetization related:
   ORBITALMAG=     F  switch on orbital magnetization
   LCHIMAG   =     F  perturbation theory with respect to B field
   DQ        =  0.001000  dq finite difference perturbation B field
   LLRAUG    =     F  two centre corrections for induced B field



--------------------------------------------------------------------------------------------------------


 Static calculation
 charge density and potential will be updated during run
 non-spin polarized calculation
 Variant of blocked Davidson
 Davidson routine will perform the subspace rotation
 perform sub-space diagonalisation
    after iterative eigenvector-optimisation
 modified Broyden-mixing scheme, WC =      100.0
 initial mixing is a Kerker type mixing with AMIX =  0.4000 and BMIX =      1.0000
 Hartree-type preconditioning will be used
 using additional bands            4
 reciprocal scheme for non local part
 use partial core corrections
 calculate Harris-corrections to forces 
   (improved forces if not selfconsistent)
 use gradient corrections 
 use of overlap-Matrix (Vanderbilt PP)
 Gauss-broadening in eV      SIGMA  =   0.01


--------------------------------------------------------------------------------------------------------


  energy-cutoff  :      500.00
  volume of cell :       62.05
      direct lattice vectors                 reciprocal lattice vectors
     4.584000000  0.000000000  0.000000000     0.218150087  0.000000000  0.000000000
     0.000000000  4.584000000  0.000000000     0.000000000  0.218150087  0.000000000
     0.000000000  0.000000000  2.953000000     0.000000000  0.000000000  0.338638673

  length of vectors
     4.584000000  4.584000000  2.953000000     0.218150087  0.218150087  0.338638673


 
 k-points in units of 2pi/SCALE and weight: Automatic KPOINTS generation            
   0.00000000  0.00000000  0.00000000       0.005
   0.03635835  0.00000000  0.00000000       0.019
   0.07271670  0.00000000  0.00000000       0.019
   0.10907504  0.00000000  0.00000000       0.009
   0.03635835  0.03635835  0.00000000       0.019
   0.07271670  0.03635835  0.00000000       0.037
   0.10907504  0.03635835  0.00000000       0.019
   0.07271670  0.07271670  0.00000000       0.019
   0.10907504  0.07271670  0.00000000       0.019
   0.10907504  0.10907504  0.00000000       0.005
   0.00000000  0.00000000  0.05643978       0.009
   0.03635835  0.00000000  0.05643978       0.037
   0.07271670  0.00000000  0.05643978       0.037
   0.10907504  0.00000000  0.05643978       0.019
   0.03635835  0.03635835  0.05643978       0.037
   0.07271670  0.03635835  0.05643978       0.074
   0.10907504  0.03635835  0.05643978       0.037
   0.07271670  0.07271670  0.05643978       0.037
   0.10907504  0.07271670  0.05643978       0.037
   0.10907504  0.10907504  0.05643978       0.009
   0.00000000  0.00000000  0.11287956       0.009
   0.03635835  0.00000000  0.11287956       0.037
   0.07271670  0.00000000  0.11287956       0.037
   0.10907504  0.00000000  0.11287956       0.019
   0.03635835  0.03635835  0.11287956       0.037
   0.07271670  0.03635835  0.11287956       0.074
   0.10907504  0.03635835  0.11287956       0.037
   0.07271670  0.07271670  0.11287956       0.037
   0.10907504  0.07271670  0.11287956       0.037
   0.10907504  0.10907504  0.11287956       0.009
   0.00000000  0.00000000  0.16931934       0.005
   0.03635835  0.00000000  0.16931934       0.019
   0.07271670  0.00000000  0.16931934       0.019
   0.10907504  0.00000000  0.16931934       0.009
   0.03635835  0.03635835  0.16931934       0.019
   0.07271670  0.03635835  0.16931934       0.037
   0.10907504  0.03635835  0.16931934       0.019
   0.07271670  0.07271670  0.16931934       0.019
   0.10907504  0.07271670  0.16931934       0.019
   0.10907504  0.10907504  0.16931934       0.005
 
 k-points in reciprocal lattice and weights: Automatic KPOINTS generation            
   0.00000000  0.00000000  0.00000000       0.005
   0.16666667  0.00000000  0.00000000       0.019
   0.33333333  0.00000000  0.00000000       0.019
   0.50000000  0.00000000  0.00000000       0.009
   0.16666667  0.16666667  0.00000000       0.019
   0.33333333  0.16666667  0.00000000       0.037
   0.50000000  0.16666667  0.00000000       0.019
   0.33333333  0.33333333  0.00000000       0.019
   0.50000000  0.33333333  0.00000000       0.019
   0.50000000  0.50000000  0.00000000       0.005
   0.00000000  0.00000000  0.16666667       0.009
   0.16666667  0.00000000  0.16666667       0.037
   0.33333333  0.00000000  0.16666667       0.037
   0.50000000  0.00000000  0.16666667       0.019
   0.16666667  0.16666667  0.16666667       0.037
   0.33333333  0.16666667  0.16666667       0.074
   0.50000000  0.16666667  0.16666667       0.037
   0.33333333  0.33333333  0.16666667       0.037
   0.50000000  0.33333333  0.16666667       0.037
   0.50000000  0.50000000  0.16666667       0.009
   0.00000000  0.00000000  0.33333333       0.009
   0.16666667  0.00000000  0.33333333       0.037
   0.33333333  0.00000000  0.33333333       0.037
   0.50000000  0.00000000  0.33333333       0.019
   0.16666667  0.16666667  0.33333333       0.037
   0.33333333  0.16666667  0.33333333       0.074
   0.50000000  0.16666667  0.33333333       0.037
   0.33333333  0.33333333  0.33333333       0.037
   0.50000000  0.33333333  0.33333333       0.037
   0.50000000  0.50000000  0.33333333       0.009
   0.00000000  0.00000000  0.50000000       0.005
   0.16666667  0.00000000  0.50000000       0.019
   0.33333333  0.00000000  0.50000000       0.019
   0.50000000  0.00000000  0.50000000       0.009
   0.16666667  0.16666667  0.50000000       0.019
   0.33333333  0.16666667  0.50000000       0.037
   0.50000000  0.16666667  0.50000000       0.019
   0.33333333  0.33333333  0.50000000       0.019
   0.50000000  0.33333333  0.50000000       0.019
   0.50000000  0.50000000  0.50000000       0.005
 
 position of ions in fractional coordinates (direct lattice) 
   0.00000000  0.00000000  0.00000000
   0.50000000  0.50000000  0.50000000
   0.19623686  0.80376314  0.50000000
   0.80376314  0.19623686  0.50000000
   0.30376314  0.30376314  0.00000000
   0.69623686  0.69623686  0.00000000
 
 position of ions in cartesian coordinates  (Angst):
   0.00000000  0.00000000  0.00000000
   2.29200000  2.29200000  1.47650000
   0.89954977  3.68445023  1.47650000
   3.68445023  0.89954977  1.47650000
   1.39245023  1.39245023  0.00000000
   3.19154977  3.19154977  0.00000000
 


--------------------------------------------------------------------------------------------------------


 k-point   1 :   0.0000 0.0000 0.0000  plane waves:    1559
 k-point   2 :   0.1667 0.0000 0.0000  plane waves:    1577
 k-point   3 :   0.3333 0.0000 0.0000  plane waves:    1585
 k-point   4 :   0.5000 0.0000 0.0000  plane waves:    1596
 k-point   5 :   0.1667 0.1667 0.0000  plane waves:    1574
 k-point   6 :   0.3333 0.1667 0.0000  plane waves:    1584
 k-point   7 :   0.5000 0.1667 0.0000  plane waves:    1592
 k-point   8 :   0.3333 0.3333 0.0000  plane waves:    1582
 k-point   9 :   0.5000 0.3333 0.0000  plane waves:    1584
 k-point  10 :   0.5000 0.5000 0.0000  plane waves:    1560
 k-point  11 :   0.0000 0.0000 0.1667  plane waves:    1603
 k-point  12 :   0.1667 0.0000 0.1667  plane waves:    1573
 k-point  13 :   0.3333 0.0000 0.1667  plane waves:    1583
 k-point  14 :   0.5000 0.0000 0.1667  plane waves:    1586
 k-point  15 :   0.1667 0.1667 0.1667  plane waves:    1579
 k-point  16 :   0.3333 0.1667 0.1667  plane waves:    1574
 k-point  17 :   0.5000 0.1667 0.1667  plane waves:    1580
 k-point  18 :   0.3333 0.3333 0.1667  plane waves:    1574
 k-point  19 :   0.5000 0.3333 0.1667  plane waves:    1580
 k-point  20 :   0.5000 0.5000 0.1667  plane waves:    1584
 k-point  21 :   0.0000 0.0000 0.3333  plane waves:    1583
 k-point  22 :   0.1667 0.0000 0.3333  plane waves:    1586
 k-point  23 :   0.3333 0.0000 0.3333  plane waves:    1569
 k-point  24 :   0.5000 0.0000 0.3333  plane waves:    1576
 k-point  25 :   0.1667 0.1667 0.3333  plane waves:    1573
 k-point  26 :   0.3333 0.1667 0.3333  plane waves:    1571
 k-point  27 :   0.5000 0.1667 0.3333  plane waves:    1562
 k-point  28 :   0.3333 0.3333 0.3333  plane waves:    1567
 k-point  29 :   0.5000 0.3333 0.3333  plane waves:    1568
 k-point  30 :   0.5000 0.5000 0.3333  plane waves:    1588
 k-point  31 :   0.0000 0.0000 0.5000  plane waves:    1586
 k-point  32 :   0.1667 0.0000 0.5000  plane waves:    1584
 k-point  33 :   0.3333 0.0000 0.5000  plane waves:    1566
 k-point  34 :   0.5000 0.0000 0.5000  plane waves:    1544
 k-point  35 :   0.1667 0.1667 0.5000  plane waves:    1576
 k-point  36 :   0.3333 0.1667 0.5000  plane waves:    1572
 k-point  37 :   0.5000 0.1667 0.5000  plane waves:    1588
 k-point  38 :   0.3333 0.3333 0.5000  plane waves:    1562
 k-point  39 :   0.5000 0.3333 0.5000  plane waves:    1552
 k-point  40 :   0.5000 0.5000 0.5000  plane waves:    1568

 maximum and minimum number of plane-waves per node :      1603     1544

 maximum number of plane-waves:      1603
 maximum index in each direction: 
   IXMAX=    8   IYMAX=    8   IZMAX=    5
   IXMIN=   -8   IYMIN=   -8   IZMIN=   -5


 serial   3D FFT for wavefunctions
 parallel 3D FFT for charge:
    minimum data exchange during FFTs selected (reduces bandwidth)


 total amount of memory used by VASP MPI-rank0    59142. kBytes
=======================================================================

   base      :      30000. kBytes
   nonl-proj :      18632. kBytes
   fftplans  :        946. kBytes
   grid      :       1981. kBytes
   one-center:         93. kBytes
   wavefun   :       7490. kBytes
 
     INWAV:  cpu time    0.0000: real time    0.0000
 Broyden mixing: mesh for mixing (old mesh)
   NGX = 17   NGY = 17   NGZ = 11
  (NGX  = 56   NGY  = 56   NGZ  = 32)
  gives a total of   3179 points

 charge density for first step will be calculated from the start-wavefunctions


--------------------------------------------------------------------------------------------------------


 Maximum index for augmentation-charges         1905 (set IRDMAX)


--------------------------------------------------------------------------------------------------------


 initial charge from wavefunction
 First call to EWALD:  gamma=   0.448
 Maximum number of real-space cells 2x 2x 4
 Maximum number of reciprocal cells 3x 3x 2

    FEWALD:  cpu time    0.0011: real time    0.0011


--------------------------------------- Iteration      1(   1)  ---------------------------------------


    POTLOK:  cpu time    0.0084: real time    0.0107
    SETDIJ:  cpu time    0.0025: real time    0.0025
atom =   1  type =  1  l = 2
 
 onsite density matrix
 
spin component  1
 
  0.1979  0.0000  0.0016  0.0000  0.0000
  0.0000  0.1872  0.0000 -0.0022  0.0000
  0.0016  0.0000  0.2025  0.0000  0.0000
  0.0000 -0.0022  0.0000  0.1872  0.0000
  0.0000  0.0000  0.0000  0.0000  0.2042
 
spin component  2
 
  0.1979  0.0000  0.0016  0.0000  0.0000
  0.0000  0.1872  0.0000 -0.0022  0.0000
  0.0016  0.0000  0.2025  0.0000  0.0000
  0.0000 -0.0022  0.0000  0.1872  0.0000
  0.0000  0.0000  0.0000  0.0000  0.2042
 
 occupancies and eigenvectors
 
  o =  0.1850  v =  0.0000 -0.7071 -0.0000 -0.7071 -0.0000  0.0000  0.0000  0.0000  0.0000  0.0000      0.0000  0.0000  0.0000  0.0000  0.0000  0.0000  0.0000  0.0000  0.0000  0.0000
  o =  0.1850  v =  0.0000  0.0000  0.0000  0.0000  0.0000  0.0000 -0.7071 -0.0000 -0.7071 -0.0000      0.0000  0.0000  0.0000  0.0000  0.0000  0.0000  0.0000  0.0000  0.0000  0.0000
  o =  0.1894  v = -0.0000  0.7071  0.0000 -0.7071  0.0000  0.0000  0.0000  0.0000  0.0000  0.0000      0.0000  0.0000  0.0000  0.0000  0.0000  0.0000  0.0000  0.0000  0.0000  0.0000
  o =  0.1894  v =  0.0000  0.0000  0.0000  0.0000  0.0000 -0.0000  0.7071  0.0000 -0.7071  0.0000      0.0000  0.0000  0.0000  0.0000  0.0000  0.0000  0.0000  0.0000  0.0000  0.0000
  o =  0.1974  v =  0.0000  0.0000  0.0000  0.0000  0.0000  0.9520  0.0000 -0.3060 -0.0000  0.0000      0.0000  0.0000  0.0000  0.0000  0.0000  0.0000  0.0000  0.0000  0.0000  0.0000
  o =  0.1974  v =  0.9520  0.0000 -0.3060 -0.0000  0.0000  0.0000  0.0000  0.0000  0.0000  0.0000      0.0000  0.0000  0.0000  0.0000  0.0000  0.0000  0.0000  0.0000  0.0000  0.0000
  o =  0.2030  v =  0.0000  0.0000  0.0000  0.0000  0.0000  0.3060 -0.0000  0.9520  0.0000 -0.0000      0.0000  0.0000  0.0000  0.0000  0.0000  0.0000  0.0000  0.0000  0.0000  0.0000
  o =  0.2030  v =  0.3060 -0.0000  0.9520  0.0000 -0.0000  0.0000  0.0000  0.0000  0.0000  0.0000      0.0000  0.0000  0.0000  0.0000  0.0000  0.0000  0.0000  0.0000  0.0000  0.0000
  o =  0.2042  v = -0.0000  0.0000 -0.0000 -0.0000 -1.0000  0.0000  0.0000  0.0000  0.0000  0.0000      0.0000  0.0000  0.0000  0.0000  0.0000  0.0000  0.0000  0.0000  0.0000  0.0000
  o =  0.2042  v =  0.0000  0.0000  0.0000  0.0000  0.0000 -0.0000  0.0000 -0.0000 -0.0000 -1.0000      0.0000  0.0000  0.0000  0.0000  0.0000  0.0000  0.0000  0.0000  0.0000  0.0000
 
atom =   2  type =  1  l = 2
 
 onsite density matrix
 
spin component  1
 
  0.1979  0.0000 -0.0016  0.0000 -0.0000
  0.0000  0.1872  0.0000  0.0022  0.0000
 -0.0016  0.0000  0.2025  0.0000  0.0000
  0.0000  0.0022  0.0000  0.1872  0.0000
 -0.0000  0.0000  0.0000  0.0000  0.2042
 
spin component  2
 
  0.1979  0.0000 -0.0016  0.0000 -0.0000
  0.0000  0.1872  0.0000  0.0022  0.0000
 -0.0016  0.0000  0.2025  0.0000  0.0000
  0.0000  0.0022  0.0000  0.1872  0.0000
 -0.0000  0.0000  0.0000  0.0000  0.2042
 
 occupancies and eigenvectors
 
  o =  0.1850  v =  0.0000  0.7071  0.0000 -0.7071 -0.0000  0.0000  0.0000  0.0000  0.0000  0.0000      0.0000  0.0000  0.0000  0.0000  0.0000  0.0000  0.0000  0.0000  0.0000  0.0000
  o =  0.1850  v =  0.0000  0.0000  0.0000  0.0000  0.0000  0.0000  0.7071  0.0000 -0.7071 -0.0000      0.0000  0.0000  0.0000  0.0000  0.0000  0.0000  0.0000  0.0000  0.0000  0.0000
  o =  0.1894  v =  0.0000  0.7071  0.0000  0.7071 -0.0000  0.0000  0.0000  0.0000  0.0000  0.0000      0.0000  0.0000  0.0000  0.0000  0.0000  0.0000  0.0000  0.0000  0.0000  0.0000
  o =  0.1894  v =  0.0000  0.0000  0.0000  0.0000  0.0000  0.0000  0.7071  0.0000  0.7071 -0.0000      0.0000  0.0000  0.0000  0.0000  0.0000  0.0000  0.0000  0.0000  0.0000  0.0000
  o =  0.1974  v =  0.0000  0.0000  0.0000  0.0000  0.0000  0.9520 -0.0000  0.3060 -0.0000 -0.0000      0.0000  0.0000  0.0000  0.0000  0.0000  0.0000  0.0000  0.0000  0.0000  0.0000
  o =  0.1974  v =  0.9520 -0.0000  0.3060 -0.0000 -0.0000  0.0000  0.0000  0.0000  0.0000  0.0000      0.0000  0.0000  0.0000  0.0000  0.0000  0.0000  0.0000  0.0000  0.0000  0.0000
  o =  0.2030  v =  0.0000  0.0000  0.0000  0.0000  0.0000  0.3060  0.0000 -0.9520  0.0000  0.0000      0.0000  0.0000  0.0000  0.0000  0.0000  0.0000  0.0000  0.0000  0.0000  0.0000
  o =  0.2030  v =  0.3060  0.0000 -0.9520  0.0000  0.0000  0.0000  0.0000  0.0000  0.0000  0.0000      0.0000  0.0000  0.0000  0.0000  0.0000  0.0000  0.0000  0.0000  0.0000  0.0000
  o =  0.2042  v = -0.0000  0.0000  0.0000  0.0000  1.0000  0.0000  0.0000  0.0000  0.0000  0.0000      0.0000  0.0000  0.0000  0.0000  0.0000  0.0000  0.0000  0.0000  0.0000  0.0000
  o =  0.2042  v =  0.0000  0.0000  0.0000  0.0000  0.0000 -0.0000  0.0000  0.0000  0.0000  1.0000      0.0000  0.0000  0.0000  0.0000  0.0000  0.0000  0.0000  0.0000  0.0000  0.0000
 
     EDDAV:  cpu time    0.4740: real time    0.4744
       DOS:  cpu time    0.0008: real time    0.0008
    --------------------------------------------
      LOOP:  cpu time    0.4857: real time    0.4884

 eigenvalue-minimisations  :  2436
 total energy-change (2. order) :-0.4508401E+03  (-0.4052893E+04)
 number of electron      47.9999996 magnetization 
 augmentation part        3.3697135 magnetization 

 Free energy of the ion-electron system (eV)
  ---------------------------------------------------
  alpha Z        PSCENC =       184.33841299
  Ewald energy   TEWEN  =     -3605.37491913
  -Hartree energ DENC   =      -104.66876467
  -exchange      EXHF   =         0.00000000
  -V(xc)+E(xc)   XCENC  =       173.96127755
  PAW double counting   =     59929.92072740   -59936.68491142
  entropy T*S    EENTRO =        -0.00014421
  eigenvalues    EBANDS =     -1997.99007582
  atomic energy  EATOM  =      4905.65827411
  Solvation  Ediel_sol  =         0.00000000
  ---------------------------------------------------
  free energy    TOTEN  =      -450.84012319 eV

  energy without entropy =     -450.83997898  energy(sigma->0) =     -450.84005109


--------------------------------------------------------------------------------------------------------




--------------------------------------- Iteration      1(   2)  ---------------------------------------


     EDDAV:  cpu time    0.4300: real time    0.4309
       DOS:  cpu time    0.0007: real time    0.0007
    --------------------------------------------
      LOOP:  cpu time    0.4307: real time    0.4316

 eigenvalue-minimisations  :  2240
 total energy-change (2. order) :-0.5370506E+03  (-0.5078553E+03)
 number of electron      47.9999996 magnetization 
 augmentation part        3.3697135 magnetization 

 Free energy of the ion-electron system (eV)
  ---------------------------------------------------
  alpha Z        PSCENC =       184.33841299
  Ewald energy   TEWEN  =     -3605.37491913
  -Hartree energ DENC   =      -104.66876467
  -exchange      EXHF   =         0.00000000
  -V(xc)+E(xc)   XCENC  =       173.96127755
  PAW double counting   =     59929.92072740   -59936.68491142
  entropy T*S    EENTRO =        -0.00019458
  eigenvalues    EBANDS =     -2535.04062399
  atomic energy  EATOM  =      4905.65827411
  Solvation  Ediel_sol  =         0.00000000
  ---------------------------------------------------
  free energy    TOTEN  =      -987.89072174 eV

  energy without entropy =     -987.89052715  energy(sigma->0) =     -987.89062445


--------------------------------------------------------------------------------------------------------




--------------------------------------- Iteration      1(   3)  ---------------------------------------


     EDDAV:  cpu time    0.7168: real time    0.7169
       DOS:  cpu time    0.0006: real time    0.0006
    --------------------------------------------
      LOOP:  cpu time    0.7175: real time    0.7175

 eigenvalue-minimisations  :  4136
 total energy-change (2. order) :-0.1131906E+03  (-0.1110112E+03)
 number of electron      47.9999996 magnetization 
 augmentation part        3.3697135 magnetization 

 Free energy of the ion-electron system (eV)
  ---------------------------------------------------
  alpha Z        PSCENC =       184.33841299
  Ewald energy   TEWEN  =     -3605.37491913
  -Hartree energ DENC   =      -104.66876467
  -exchange      EXHF   =         0.00000000
  -V(xc)+E(xc)   XCENC  =       173.96127755
  PAW double counting   =     59929.92072740   -59936.68491142
  entropy T*S    EENTRO =        -0.00009901
  eigenvalues    EBANDS =     -2648.23136053
  atomic energy  EATOM  =      4905.65827411
  Solvation  Ediel_sol  =         0.00000000
  ---------------------------------------------------
  free energy    TOTEN  =     -1101.08136270 eV

  energy without entropy =    -1101.08126369  energy(sigma->0) =    -1101.08131319


--------------------------------------------------------------------------------------------------------




--------------------------------------- Iteration      1(   4)  ---------------------------------------


     EDDAV:  cpu time    0.5803: real time    0.5803
       DOS:  cpu time    0.0006: real time    0.0006
    --------------------------------------------
      LOOP:  cpu time    0.5809: real time    0.5810

 eigenvalue-minimisations  :  3280
 total energy-change (2. order) :-0.1154096E+02  (-0.1134536E+02)
 number of electron      47.9999996 magnetization 
 augmentation part        3.3697135 magnetization 

 Free energy of the ion-electron system (eV)
  ---------------------------------------------------
  alpha Z        PSCENC =       184.33841299
  Ewald energy   TEWEN  =     -3605.37491913
  -Hartree energ DENC   =      -104.66876467
  -exchange      EXHF   =         0.00000000
  -V(xc)+E(xc)   XCENC  =       173.96127755
  PAW double counting   =     59929.92072740   -59936.68491142
  entropy T*S    EENTRO =        -0.00009294
  eigenvalues    EBANDS =     -2659.77232891
  atomic energy  EATOM  =      4905.65827411
  Solvation  Ediel_sol  =         0.00000000
  ---------------------------------------------------
  free energy    TOTEN  =     -1112.62232502 eV

  energy without entropy =    -1112.62223207  energy(sigma->0) =    -1112.62227855


--------------------------------------------------------------------------------------------------------




--------------------------------------- Iteration      1(   5)  ---------------------------------------


     EDDAV:  cpu time    0.6130: real time    0.6130
       DOS:  cpu time    0.0007: real time    0.0007
    CHARGE:  cpu time    0.0290: real time    0.0290
    MIXING:  cpu time    0.0005: real time    0.0004
    --------------------------------------------
      LOOP:  cpu time    0.6432: real time    0.6432

 eigenvalue-minimisations  :  3460
 total energy-change (2. order) :-0.1038626E+01  (-0.9984185E+00)
 number of electron      47.9999973 magnetization 
 augmentation part       21.9891375 magnetization 

 Broyden mixing:
  rms(total) = 0.39912E+02    rms(broyden)= 0.39911E+02
  rms(prec ) = 0.52729E+02
  weight for this iteration     100.00

 Free energy of the ion-electron system (eV)
  ---------------------------------------------------
  alpha Z        PSCENC =       184.33841299
  Ewald energy   TEWEN  =     -3605.37491913
  -Hartree energ DENC   =      -104.66876467
  -exchange      EXHF   =         0.00000000
  -V(xc)+E(xc)   XCENC  =       173.96127755
  PAW double counting   =     59929.92072740   -59936.68491142
  entropy T*S    EENTRO =        -0.00014473
  eigenvalues    EBANDS =     -2660.81090279
  atomic energy  EATOM  =      4905.65827411
  Solvation  Ediel_sol  =         0.00000000
  ---------------------------------------------------
  free energy    TOTEN  =     -1113.66095068 eV

  energy without entropy =    -1113.66080595  energy(sigma->0) =    -1113.66087832


--------------------------------------------------------------------------------------------------------




--------------------------------------- Iteration      1(   6)  ---------------------------------------


    POTLOK:  cpu time    0.0084: real time    0.0084
    SETDIJ:  cpu time    0.0024: real time    0.0024
atom =   1  type =  1  l = 2
 
 onsite density matrix
 
spin component  1
 
  0.5131  0.0000  0.0045  0.0000  0.0000
  0.0000  0.5089  0.0000  0.0010  0.0000
  0.0045  0.0000  0.5188  0.0000  0.0000
  0.0000  0.0010  0.0000  0.5089  0.0000
  0.0000  0.0000  0.0000  0.0000  0.5234
 
spin component  2
 
  0.5131  0.0000  0.0045  0.0000  0.0000
  0.0000  0.5089  0.0000  0.0010  0.0000
  0.0045  0.0000  0.5188  0.0000  0.0000
  0.0000  0.0010  0.0000  0.5089  0.0000
  0.0000  0.0000  0.0000  0.0000  0.5234
 
 occupancies and eigenvectors
 
  o =  0.5079  v =  0.0000 -0.7071  0.0000  0.7071 -0.0000  0.0000  0.0000  0.0000  0.0000  0.0000      0.0000  0.0000  0.0000  0.0000  0.0000  0.0000  0.0000  0.0000  0.0000  0.0000
  o =  0.5079  v =  0.0000  0.0000  0.0000  0.0000  0.0000  0.0000 -0.7071  0.0000  0.7071 -0.0000      0.0000  0.0000  0.0000  0.0000  0.0000  0.0000  0.0000  0.0000  0.0000  0.0000
  o =  0.5099  v =  0.0000 -0.7071  0.0000 -0.7071 -0.0000  0.0000  0.0000  0.0000  0.0000  0.0000      0.0000  0.0000  0.0000  0.0000  0.0000  0.0000  0.0000  0.0000  0.0000  0.0000
  o =  0.5099  v =  0.0000  0.0000  0.0000  0.0000  0.0000  0.0000 -0.7071  0.0000 -0.7071 -0.0000      0.0000  0.0000  0.0000  0.0000  0.0000  0.0000  0.0000  0.0000  0.0000  0.0000
  o =  0.5106  v =  0.8763 -0.0000 -0.4818  0.0000  0.0000  0.0000  0.0000  0.0000  0.0000  0.0000      0.0000  0.0000  0.0000  0.0000  0.0000  0.0000  0.0000  0.0000  0.0000  0.0000
  o =  0.5106  v =  0.0000  0.0000  0.0000  0.0000  0.0000  0.8763 -0.0000 -0.4818  0.0000  0.0000      0.0000  0.0000  0.0000  0.0000  0.0000  0.0000  0.0000  0.0000  0.0000  0.0000
  o =  0.5212  v =  0.0000  0.0000  0.0000  0.0000  0.0000  0.4818  0.0000  0.8763  0.0000 -0.0000      0.0000  0.0000  0.0000  0.0000  0.0000  0.0000  0.0000  0.0000  0.0000  0.0000
  o =  0.5212  v =  0.4818  0.0000  0.8763  0.0000 -0.0000  0.0000  0.0000  0.0000  0.0000  0.0000      0.0000  0.0000  0.0000  0.0000  0.0000  0.0000  0.0000  0.0000  0.0000  0.0000
  o =  0.5234  v =  0.0000  0.0000  0.0000  0.0000  0.0000  0.0000 -0.0000  0.0000  0.0000  1.0000      0.0000  0.0000  0.0000  0.0000  0.0000  0.0000  0.0000  0.0000  0.0000  0.0000
  o =  0.5234  v =  0.0000 -0.0000  0.0000  0.0000  1.0000  0.0000  0.0000  0.0000  0.0000  0.0000      0.0000  0.0000  0.0000  0.0000  0.0000  0.0000  0.0000  0.0000  0.0000  0.0000
 
atom =   2  type =  1  l = 2
 
 onsite density matrix
 
spin component  1
 
  0.5131  0.0000 -0.0045  0.0000 -0.0000
  0.0000  0.5089  0.0000 -0.0010  0.0000
 -0.0045  0.0000  0.5188  0.0000  0.0000
  0.0000 -0.0010  0.0000  0.5089  0.0000
 -0.0000  0.0000  0.0000  0.0000  0.5234
 
spin component  2
 
  0.5131  0.0000 -0.0045  0.0000 -0.0000
  0.0000  0.5089  0.0000 -0.0010  0.0000
 -0.0045  0.0000  0.5188  0.0000  0.0000
  0.0000 -0.0010  0.0000  0.5089  0.0000
 -0.0000  0.0000  0.0000  0.0000  0.5234
 
 occupancies and eigenvectors
 
  o =  0.5079  v =  0.0000  0.7071  0.0000  0.7071 -0.0000  0.0000  0.0000  0.0000  0.0000  0.0000      0.0000  0.0000  0.0000  0.0000  0.0000  0.0000  0.0000  0.0000  0.0000  0.0000
  o =  0.5079  v =  0.0000  0.0000  0.0000  0.0000  0.0000  0.0000  0.7071  0.0000  0.7071 -0.0000      0.0000  0.0000  0.0000  0.0000  0.0000  0.0000  0.0000  0.0000  0.0000  0.0000
  o =  0.5099  v =  0.0000  0.7071  0.0000 -0.7071  0.0000  0.0000  0.0000  0.0000  0.0000  0.0000      0.0000  0.0000  0.0000  0.0000  0.0000  0.0000  0.0000  0.0000  0.0000  0.0000
  o =  0.5099  v =  0.0000  0.0000  0.0000  0.0000  0.0000  0.0000  0.7071  0.0000 -0.7071  0.0000      0.0000  0.0000  0.0000  0.0000  0.0000  0.0000  0.0000  0.0000  0.0000  0.0000
  o =  0.5106  v =  0.0000  0.0000  0.0000  0.0000  0.0000 -0.8763  0.0000 -0.4818 -0.0000  0.0000      0.0000  0.0000  0.0000  0.0000  0.0000  0.0000  0.0000  0.0000  0.0000  0.0000
  o =  0.5106  v = -0.8763  0.0000 -0.4818 -0.0000  0.0000  0.0000  0.0000  0.0000  0.0000  0.0000      0.0000  0.0000  0.0000  0.0000  0.0000  0.0000  0.0000  0.0000  0.0000  0.0000
  o =  0.5212  v = -0.4818 -0.0000  0.8763  0.0000 -0.0000  0.0000  0.0000  0.0000  0.0000  0.0000      0.0000  0.0000  0.0000  0.0000  0.0000  0.0000  0.0000  0.0000  0.0000  0.0000
  o =  0.5212  v =  0.0000  0.0000  0.0000  0.0000  0.0000 -0.4818 -0.0000  0.8763  0.0000 -0.0000      0.0000  0.0000  0.0000  0.0000  0.0000  0.0000  0.0000  0.0000  0.0000  0.0000
  o =  0.5234  v = -0.0000 -0.0000  0.0000  0.0000  1.0000  0.0000  0.0000  0.0000  0.0000  0.0000      0.0000  0.0000  0.0000  0.0000  0.0000  0.0000  0.0000  0.0000  0.0000  0.0000
  o =  0.5234  v =  0.0000  0.0000  0.0000  0.0000  0.0000 -0.0000 -0.0000  0.0000  0.0000  1.0000      0.0000  0.0000  0.0000  0.0000  0.0000  0.0000  0.0000  0.0000  0.0000  0.0000
 
     EDDAV:  cpu time    0.6108: real time    0.6108
       DOS:  cpu time    0.0007: real time    0.0007
    CHARGE:  cpu time    0.0269: real time    0.0269
    MIXING:  cpu time    0.0005: real time    0.0005
    --------------------------------------------
      LOOP:  cpu time    0.6498: real time    0.6498

 eigenvalue-minimisations  :  3456
 total energy-change (2. order) : 0.5853828E+03  (-0.6167474E+03)
 number of electron      47.9999955 magnetization 
 augmentation part       17.9319234 magnetization 

 Broyden mixing:
  rms(total) = 0.27312E+02    rms(broyden)= 0.27311E+02
  rms(prec ) = 0.33571E+02
  weight for this iteration     100.00

 eigenvalues of (default mixing * dielectric matrix)
  average eigenvalue GAMMA=   0.6204
  0.6204

 Free energy of the ion-electron system (eV)
  ---------------------------------------------------
  alpha Z        PSCENC =       184.33841299
  Ewald energy   TEWEN  =     -3605.37491913
  -Hartree energ DENC   =      -825.71708622
  -exchange      EXHF   =         0.00000000
  -V(xc)+E(xc)   XCENC  =       208.18520624
  PAW double counting   =     51860.51857133   -51861.59334346
  entropy T*S    EENTRO =        -0.00019862
  eigenvalues    EBANDS =     -1394.29311643
  atomic energy  EATOM  =      4905.65827411
  Solvation  Ediel_sol  =         0.00000000
  ---------------------------------------------------
  free energy    TOTEN  =      -528.27819918 eV

  energy without entropy =     -528.27800057  energy(sigma->0) =     -528.27809988


--------------------------------------------------------------------------------------------------------




--------------------------------------- Iteration      1(   7)  ---------------------------------------


    POTLOK:  cpu time    0.0079: real time    0.0079
    SETDIJ:  cpu time    0.0026: real time    0.0026
atom =   1  type =  1  l = 2
 
 onsite density matrix
 
spin component  1
 
  0.3837  0.0000  0.0018  0.0000  0.0000
  0.0000  0.3779  0.0000 -0.0012  0.0000
  0.0018  0.0000  0.3895  0.0000  0.0000
  0.0000 -0.0012  0.0000  0.3779  0.0000
  0.0000  0.0000  0.0000  0.0000  0.3851
 
spin component  2
 
  0.3837  0.0000  0.0018  0.0000  0.0000
  0.0000  0.3779  0.0000 -0.0012  0.0000
  0.0018  0.0000  0.3895  0.0000  0.0000
  0.0000 -0.0012  0.0000  0.3779  0.0000
  0.0000  0.0000  0.0000  0.0000  0.3851
 
 occupancies and eigenvectors
 
  o =  0.3767  v =  0.0000 -0.7071 -0.0000 -0.7071  0.0000  0.0000  0.0000  0.0000  0.0000  0.0000      0.0000  0.0000  0.0000  0.0000  0.0000  0.0000  0.0000  0.0000  0.0000  0.0000
  o =  0.3767  v =  0.0000  0.0000  0.0000  0.0000  0.0000  0.0000 -0.7071 -0.0000 -0.7071  0.0000      0.0000  0.0000  0.0000  0.0000  0.0000  0.0000  0.0000  0.0000  0.0000  0.0000
  o =  0.3791  v = -0.0000  0.7071  0.0000 -0.7071 -0.0000  0.0000  0.0000  0.0000  0.0000  0.0000      0.0000  0.0000  0.0000  0.0000  0.0000  0.0000  0.0000  0.0000  0.0000  0.0000
  o =  0.3791  v =  0.0000  0.0000  0.0000  0.0000  0.0000 -0.0000  0.7071  0.0000 -0.7071 -0.0000      0.0000  0.0000  0.0000  0.0000  0.0000  0.0000  0.0000  0.0000  0.0000  0.0000
  o =  0.3832  v =  0.0000  0.0000  0.0000  0.0000  0.0000 -0.9618 -0.0000  0.2737  0.0000 -0.0000      0.0000  0.0000  0.0000  0.0000  0.0000  0.0000  0.0000  0.0000  0.0000  0.0000
  o =  0.3832  v = -0.9618 -0.0000  0.2737  0.0000 -0.0000  0.0000  0.0000  0.0000  0.0000  0.0000      0.0000  0.0000  0.0000  0.0000  0.0000  0.0000  0.0000  0.0000  0.0000  0.0000
  o =  0.3851  v =  0.0000 -0.0000  0.0000  0.0000 -1.0000  0.0000  0.0000  0.0000  0.0000  0.0000      0.0000  0.0000  0.0000  0.0000  0.0000  0.0000  0.0000  0.0000  0.0000  0.0000
  o =  0.3851  v =  0.0000  0.0000  0.0000  0.0000  0.0000  0.0000 -0.0000  0.0000  0.0000 -1.0000      0.0000  0.0000  0.0000  0.0000  0.0000  0.0000  0.0000  0.0000  0.0000  0.0000
  o =  0.3900  v =  0.0000  0.0000  0.0000  0.0000  0.0000 -0.2737  0.0000 -0.9618 -0.0000 -0.0000      0.0000  0.0000  0.0000  0.0000  0.0000  0.0000  0.0000  0.0000  0.0000  0.0000
  o =  0.3900  v = -0.2737  0.0000 -0.9618 -0.0000 -0.0000  0.0000  0.0000  0.0000  0.0000  0.0000      0.0000  0.0000  0.0000  0.0000  0.0000  0.0000  0.0000  0.0000  0.0000  0.0000
 
atom =   2  type =  1  l = 2
 
 onsite density matrix
 
spin component  1
 
  0.3837  0.0000 -0.0018  0.0000 -0.0000
  0.0000  0.3779  0.0000  0.0012  0.0000
 -0.0018  0.0000  0.3895  0.0000  0.0000
  0.0000  0.0012  0.0000  0.3779  0.0000
 -0.0000  0.0000  0.0000  0.0000  0.3851
 
spin component  2
 
  0.3837  0.0000 -0.0018  0.0000 -0.0000
  0.0000  0.3779  0.0000  0.0012  0.0000
 -0.0018  0.0000  0.3895  0.0000  0.0000
  0.0000  0.0012  0.0000  0.3779  0.0000
 -0.0000  0.0000  0.0000  0.0000  0.3851
 
 occupancies and eigenvectors
 
  o =  0.3767  v = -0.0000  0.7071 -0.0000 -0.7071  0.0000  0.0000  0.0000  0.0000  0.0000  0.0000      0.0000  0.0000  0.0000  0.0000  0.0000  0.0000  0.0000  0.0000  0.0000  0.0000
  o =  0.3767  v =  0.0000  0.0000  0.0000  0.0000  0.0000 -0.0000  0.7071 -0.0000 -0.7071  0.0000      0.0000  0.0000  0.0000  0.0000  0.0000  0.0000  0.0000  0.0000  0.0000  0.0000
  o =  0.3791  v =  0.0000 -0.7071  0.0000 -0.7071 -0.0000  0.0000  0.0000  0.0000  0.0000  0.0000      0.0000  0.0000  0.0000  0.0000  0.0000  0.0000  0.0000  0.0000  0.0000  0.0000
  o =  0.3791  v =  0.0000  0.0000  0.0000  0.0000  0.0000  0.0000 -0.7071  0.0000 -0.7071 -0.0000      0.0000  0.0000  0.0000  0.0000  0.0000  0.0000  0.0000  0.0000  0.0000  0.0000
  o =  0.3832  v =  0.0000  0.0000  0.0000  0.0000  0.0000 -0.9618 -0.0000 -0.2737  0.0000  0.0000      0.0000  0.0000  0.0000  0.0000  0.0000  0.0000  0.0000  0.0000  0.0000  0.0000
  o =  0.3832  v = -0.9618 -0.0000 -0.2737  0.0000  0.0000  0.0000  0.0000  0.0000  0.0000  0.0000      0.0000  0.0000  0.0000  0.0000  0.0000  0.0000  0.0000  0.0000  0.0000  0.0000
  o =  0.3851  v = -0.0000  0.0000  0.0000 -0.0000 -1.0000  0.0000  0.0000  0.0000  0.0000  0.0000      0.0000  0.0000  0.0000  0.0000  0.0000  0.0000  0.0000  0.0000  0.0000  0.0000
  o =  0.3851  v =  0.0000  0.0000  0.0000  0.0000  0.0000 -0.0000  0.0000  0.0000 -0.0000 -1.0000      0.0000  0.0000  0.0000  0.0000  0.0000  0.0000  0.0000  0.0000  0.0000  0.0000
  o =  0.3900  v =  0.0000  0.0000  0.0000  0.0000  0.0000 -0.2737 -0.0000  0.9618  0.0000  0.0000      0.0000  0.0000  0.0000  0.0000  0.0000  0.0000  0.0000  0.0000  0.0000  0.0000
  o =  0.3900  v = -0.2737 -0.0000  0.9618  0.0000  0.0000  0.0000  0.0000  0.0000  0.0000  0.0000      0.0000  0.0000  0.0000  0.0000  0.0000  0.0000  0.0000  0.0000  0.0000  0.0000
 
     EDDAV:  cpu time    0.5316: real time    0.5316
       DOS:  cpu time    0.0006: real time    0.0006
    CHARGE:  cpu time    0.0271: real time    0.0271
    MIXING:  cpu time    0.0004: real time    0.0004
    --------------------------------------------
      LOOP:  cpu time    0.5702: real time    0.5703

 eigenvalue-minimisations  :  2916
 total energy-change (2. order) : 0.3290982E+03  (-0.3503058E+02)
 number of electron      47.9999960 magnetization 
 augmentation part       16.9801160 magnetization 

 Broyden mixing:
  rms(total) = 0.32852E+02    rms(broyden)= 0.32852E+02
  rms(prec ) = 0.35335E+02
  weight for this iteration     100.00

 eigenvalues of (default mixing * dielectric matrix)
  average eigenvalue GAMMA=   0.4814
  0.6145  0.3483

 Free energy of the ion-electron system (eV)
  ---------------------------------------------------
  alpha Z        PSCENC =       184.33841299
  Ewald energy   TEWEN  =     -3605.37491913
  -Hartree energ DENC   =      -858.22036253
  -exchange      EXHF   =         0.00000000
  -V(xc)+E(xc)   XCENC  =       215.18343452
  PAW double counting   =     46659.00331910   -46672.44791565
  entropy T*S    EENTRO =        -0.00008322
  eigenvalues    EBANDS =     -1027.32012753
  atomic energy  EATOM  =      4905.65827411
  Solvation  Ediel_sol  =         0.00000000
  ---------------------------------------------------
  free energy    TOTEN  =      -199.17996734 eV

  energy without entropy =     -199.17988412  energy(sigma->0) =     -199.17992573


--------------------------------------------------------------------------------------------------------




--------------------------------------- Iteration      1(   8)  ---------------------------------------


    POTLOK:  cpu time    0.0078: real time    0.0078
    SETDIJ:  cpu time    0.0024: real time    0.0024
atom =   1  type =  1  l = 2
 
 onsite density matrix
 
spin component  1
 
  0.3868  0.0000  0.0020  0.0000  0.0000
  0.0000  0.3809  0.0000 -0.0010  0.0000
  0.0020  0.0000  0.3926  0.0000  0.0000
  0.0000 -0.0010  0.0000  0.3809  0.0000
  0.0000  0.0000  0.0000  0.0000  0.3885
 
spin component  2
 
  0.3868  0.0000  0.0020  0.0000  0.0000
  0.0000  0.3809  0.0000 -0.0010  0.0000
  0.0020  0.0000  0.3926  0.0000  0.0000
  0.0000 -0.0010  0.0000  0.3809  0.0000
  0.0000  0.0000  0.0000  0.0000  0.3885
 
 occupancies and eigenvectors
 
  o =  0.3800  v =  0.0000  0.7071  0.0000  0.7071  0.0000  0.0000  0.0000  0.0000  0.0000  0.0000      0.0000  0.0000  0.0000  0.0000  0.0000  0.0000  0.0000  0.0000  0.0000  0.0000
  o =  0.3800  v =  0.0000  0.0000  0.0000  0.0000  0.0000  0.0000  0.7071  0.0000  0.7071  0.0000      0.0000  0.0000  0.0000  0.0000  0.0000  0.0000  0.0000  0.0000  0.0000  0.0000
  o =  0.3819  v =  0.0000 -0.7071  0.0000  0.7071 -0.0000  0.0000  0.0000  0.0000  0.0000  0.0000      0.0000  0.0000  0.0000  0.0000  0.0000  0.0000  0.0000  0.0000  0.0000  0.0000
  o =  0.3819  v =  0.0000  0.0000  0.0000  0.0000  0.0000  0.0000 -0.7071  0.0000  0.7071 -0.0000      0.0000  0.0000  0.0000  0.0000  0.0000  0.0000  0.0000  0.0000  0.0000  0.0000
  o =  0.3862  v =  0.9551 -0.0000 -0.2964  0.0000  0.0000  0.0000  0.0000  0.0000  0.0000  0.0000      0.0000  0.0000  0.0000  0.0000  0.0000  0.0000  0.0000  0.0000  0.0000  0.0000
  o =  0.3862  v =  0.0000  0.0000  0.0000  0.0000  0.0000  0.9551 -0.0000 -0.2964  0.0000  0.0000      0.0000  0.0000  0.0000  0.0000  0.0000  0.0000  0.0000  0.0000  0.0000  0.0000
  o =  0.3885  v =  0.0000  0.0000  0.0000  0.0000  0.0000  0.0000  0.0000  0.0000  0.0000 -1.0000      0.0000  0.0000  0.0000  0.0000  0.0000  0.0000  0.0000  0.0000  0.0000  0.0000
  o =  0.3885  v =  0.0000  0.0000  0.0000  0.0000 -1.0000  0.0000  0.0000  0.0000  0.0000  0.0000      0.0000  0.0000  0.0000  0.0000  0.0000  0.0000  0.0000  0.0000  0.0000  0.0000
  o =  0.3932  v =  0.0000  0.0000  0.0000  0.0000  0.0000  0.2964 -0.0000  0.9551  0.0000  0.0000      0.0000  0.0000  0.0000  0.0000  0.0000  0.0000  0.0000  0.0000  0.0000  0.0000
  o =  0.3932  v =  0.2964 -0.0000  0.9551  0.0000  0.0000  0.0000  0.0000  0.0000  0.0000  0.0000      0.0000  0.0000  0.0000  0.0000  0.0000  0.0000  0.0000  0.0000  0.0000  0.0000
 
atom =   2  type =  1  l = 2
 
 onsite density matrix
 
spin component  1
 
  0.3868  0.0000 -0.0020  0.0000 -0.0000
  0.0000  0.3809  0.0000  0.0010  0.0000
 -0.0020  0.0000  0.3926  0.0000  0.0000
  0.0000  0.0010  0.0000  0.3809  0.0000
 -0.0000  0.0000  0.0000  0.0000  0.3885
 
spin component  2
 
  0.3868  0.0000 -0.0020  0.0000 -0.0000
  0.0000  0.3809  0.0000  0.0010  0.0000
 -0.0020  0.0000  0.3926  0.0000  0.0000
  0.0000  0.0010  0.0000  0.3809  0.0000
 -0.0000  0.0000  0.0000  0.0000  0.3885
 
 occupancies and eigenvectors
 
  o =  0.3800  v = -0.0000  0.7071 -0.0000 -0.7071 -0.0000  0.0000  0.0000  0.0000  0.0000  0.0000      0.0000  0.0000  0.0000  0.0000  0.0000  0.0000  0.0000  0.0000  0.0000  0.0000
  o =  0.3800  v =  0.0000  0.0000  0.0000  0.0000  0.0000 -0.0000  0.7071 -0.0000 -0.7071 -0.0000      0.0000  0.0000  0.0000  0.0000  0.0000  0.0000  0.0000  0.0000  0.0000  0.0000
  o =  0.3819  v =  0.0000 -0.7071  0.0000 -0.7071 -0.0000  0.0000  0.0000  0.0000  0.0000  0.0000      0.0000  0.0000  0.0000  0.0000  0.0000  0.0000  0.0000  0.0000  0.0000  0.0000
  o =  0.3819  v =  0.0000  0.0000  0.0000  0.0000  0.0000  0.0000 -0.7071  0.0000 -0.7071 -0.0000      0.0000  0.0000  0.0000  0.0000  0.0000  0.0000  0.0000  0.0000  0.0000  0.0000
  o =  0.3862  v =  0.0000  0.0000  0.0000  0.0000  0.0000 -0.9551 -0.0000 -0.2964 -0.0000  0.0000      0.0000  0.0000  0.0000  0.0000  0.0000  0.0000  0.0000  0.0000  0.0000  0.0000
  o =  0.3862  v = -0.9551 -0.0000 -0.2964 -0.0000  0.0000  0.0000  0.0000  0.0000  0.0000  0.0000      0.0000  0.0000  0.0000  0.0000  0.0000  0.0000  0.0000  0.0000  0.0000  0.0000
  o =  0.3885  v = -0.0000  0.0000  0.0000  0.0000 -1.0000  0.0000  0.0000  0.0000  0.0000  0.0000      0.0000  0.0000  0.0000  0.0000  0.0000  0.0000  0.0000  0.0000  0.0000  0.0000
  o =  0.3885  v =  0.0000  0.0000  0.0000  0.0000  0.0000 -0.0000  0.0000  0.0000  0.0000 -1.0000      0.0000  0.0000  0.0000  0.0000  0.0000  0.0000  0.0000  0.0000  0.0000  0.0000
  o =  0.3932  v =  0.0000  0.0000  0.0000  0.0000  0.0000 -0.2964  0.0000  0.9551  0.0000  0.0000      0.0000  0.0000  0.0000  0.0000  0.0000  0.0000  0.0000  0.0000  0.0000  0.0000
  o =  0.3932  v = -0.2964  0.0000  0.9551  0.0000  0.0000  0.0000  0.0000  0.0000  0.0000  0.0000      0.0000  0.0000  0.0000  0.0000  0.0000  0.0000  0.0000  0.0000  0.0000  0.0000
 
     EDDAV:  cpu time    0.4665: real time    0.4665
       DOS:  cpu time    0.0002: real time    0.0002
    CHARGE:  cpu time    0.0272: real time    0.0272
    MIXING:  cpu time    0.0005: real time    0.0005
    --------------------------------------------
      LOOP:  cpu time    0.5047: real time    0.5047

 eigenvalue-minimisations  :  2512
 total energy-change (2. order) :-0.1225907E+02  (-0.5705468E+01)
 number of electron      47.9999960 magnetization 
 augmentation part       16.4122616 magnetization 

 Broyden mixing:
  rms(total) = 0.35319E+02    rms(broyden)= 0.35319E+02
  rms(prec ) = 0.37553E+02
  weight for this iteration     100.00

 eigenvalues of (default mixing * dielectric matrix)
  average eigenvalue GAMMA=   0.4531
  0.4569  0.4512  0.4512

 Free energy of the ion-electron system (eV)
  ---------------------------------------------------
  alpha Z        PSCENC =       184.33841299
  Ewald energy   TEWEN  =     -3605.37491913
  -Hartree energ DENC   =      -856.00783449
  -exchange      EXHF   =         0.00000000
  -V(xc)+E(xc)   XCENC  =       214.95841281
  PAW double counting   =     47160.28515893   -47173.44530341
  entropy T*S    EENTRO =        -0.00000000
  eigenvalues    EBANDS =     -1041.85123475
  atomic energy  EATOM  =      4905.65827411
  Solvation  Ediel_sol  =         0.00000000
  ---------------------------------------------------
  free energy    TOTEN  =      -211.43903294 eV

  energy without entropy =     -211.43903294  energy(sigma->0) =     -211.43903294


--------------------------------------------------------------------------------------------------------




--------------------------------------- Iteration      1(   9)  ---------------------------------------


    POTLOK:  cpu time    0.0078: real time    0.0078
    SETDIJ:  cpu time    0.0025: real time    0.0025
atom =   1  type =  1  l = 2
 
 onsite density matrix
 
spin component  1
 
  0.2471  0.0000  0.0218  0.0000  0.0000
  0.0000  0.2646  0.0000  0.0092  0.0000
  0.0218  0.0000  0.3064  0.0000  0.0000
  0.0000  0.0092  0.0000  0.2646  0.0000
  0.0000  0.0000  0.0000  0.0000  0.2739
 
spin component  2
 
  0.2471  0.0000  0.0218  0.0000  0.0000
  0.0000  0.2646  0.0000  0.0092  0.0000
  0.0218  0.0000  0.3064  0.0000  0.0000
  0.0000  0.0092  0.0000  0.2646  0.0000
  0.0000  0.0000  0.0000  0.0000  0.2739
 
 occupancies and eigenvectors
 
  o =  0.2400  v =  0.9503  0.0000 -0.3115 -0.0000  0.0000  0.0000  0.0000  0.0000  0.0000  0.0000      0.0000  0.0000  0.0000  0.0000  0.0000  0.0000  0.0000  0.0000  0.0000  0.0000
  o =  0.2400  v =  0.0000  0.0000  0.0000  0.0000  0.0000  0.9503  0.0000 -0.3115 -0.0000  0.0000      0.0000  0.0000  0.0000  0.0000  0.0000  0.0000  0.0000  0.0000  0.0000  0.0000
  o =  0.2554  v =  0.0000 -0.7071  0.0000  0.7071 -0.0000  0.0000  0.0000  0.0000  0.0000  0.0000      0.0000  0.0000  0.0000  0.0000  0.0000  0.0000  0.0000  0.0000  0.0000  0.0000
  o =  0.2554  v =  0.0000  0.0000  0.0000  0.0000  0.0000  0.0000 -0.7071  0.0000  0.7071 -0.0000      0.0000  0.0000  0.0000  0.0000  0.0000  0.0000  0.0000  0.0000  0.0000  0.0000
  o =  0.2738  v =  0.0000  0.0000  0.0000  0.0000  0.0000  0.0000 -0.7071  0.0000 -0.7071 -0.0000      0.0000  0.0000  0.0000  0.0000  0.0000  0.0000  0.0000  0.0000  0.0000  0.0000
  o =  0.2738  v =  0.0000 -0.7071  0.0000 -0.7071 -0.0000  0.0000  0.0000  0.0000  0.0000  0.0000      0.0000  0.0000  0.0000  0.0000  0.0000  0.0000  0.0000  0.0000  0.0000  0.0000
  o =  0.2739  v =  0.0000  0.0000  0.0000  0.0000  0.0000 -0.0000 -0.0000 -0.0000 -0.0000  1.0000      0.0000  0.0000  0.0000  0.0000  0.0000  0.0000  0.0000  0.0000  0.0000  0.0000
  o =  0.2739  v = -0.0000 -0.0000 -0.0000 -0.0000  1.0000  0.0000  0.0000  0.0000  0.0000  0.0000      0.0000  0.0000  0.0000  0.0000  0.0000  0.0000  0.0000  0.0000  0.0000  0.0000
  o =  0.3135  v =  0.0000  0.0000  0.0000  0.0000  0.0000 -0.3115  0.0000 -0.9503  0.0000 -0.0000      0.0000  0.0000  0.0000  0.0000  0.0000  0.0000  0.0000  0.0000  0.0000  0.0000
  o =  0.3135  v = -0.3115  0.0000 -0.9503  0.0000 -0.0000  0.0000  0.0000  0.0000  0.0000  0.0000      0.0000  0.0000  0.0000  0.0000  0.0000  0.0000  0.0000  0.0000  0.0000  0.0000
 
atom =   2  type =  1  l = 2
 
 onsite density matrix
 
spin component  1
 
  0.2471  0.0000 -0.0218  0.0000 -0.0000
  0.0000  0.2646  0.0000 -0.0092  0.0000
 -0.0218  0.0000  0.3064  0.0000  0.0000
  0.0000 -0.0092  0.0000  0.2646  0.0000
 -0.0000  0.0000  0.0000  0.0000  0.2739
 
spin component  2
 
  0.2471  0.0000 -0.0218  0.0000 -0.0000
  0.0000  0.2646  0.0000 -0.0092  0.0000
 -0.0218  0.0000  0.3064  0.0000  0.0000
  0.0000 -0.0092  0.0000  0.2646  0.0000
 -0.0000  0.0000  0.0000  0.0000  0.2739
 
 occupancies and eigenvectors
 
  o =  0.2400  v =  0.9503 -0.0000  0.3115 -0.0000 -0.0000  0.0000  0.0000  0.0000  0.0000  0.0000      0.0000  0.0000  0.0000  0.0000  0.0000  0.0000  0.0000  0.0000  0.0000  0.0000
  o =  0.2400  v =  0.0000  0.0000  0.0000  0.0000  0.0000  0.9503 -0.0000  0.3115 -0.0000 -0.0000      0.0000  0.0000  0.0000  0.0000  0.0000  0.0000  0.0000  0.0000  0.0000  0.0000
  o =  0.2554  v =  0.0000  0.7071 -0.0000  0.7071  0.0000  0.0000  0.0000  0.0000  0.0000  0.0000      0.0000  0.0000  0.0000  0.0000  0.0000  0.0000  0.0000  0.0000  0.0000  0.0000
  o =  0.2554  v =  0.0000  0.0000  0.0000  0.0000  0.0000  0.0000  0.7071 -0.0000  0.7071  0.0000      0.0000  0.0000  0.0000  0.0000  0.0000  0.0000  0.0000  0.0000  0.0000  0.0000
  o =  0.2738  v =  0.0000  0.0000  0.0000  0.0000  0.0000 -0.0000 -0.7071  0.0000  0.7071 -0.0000      0.0000  0.0000  0.0000  0.0000  0.0000  0.0000  0.0000  0.0000  0.0000  0.0000
  o =  0.2738  v = -0.0000 -0.7071  0.0000  0.7071 -0.0000  0.0000  0.0000  0.0000  0.0000  0.0000      0.0000  0.0000  0.0000  0.0000  0.0000  0.0000  0.0000  0.0000  0.0000  0.0000
  o =  0.2739  v =  0.0000  0.0000  0.0000  0.0000  0.0000 -0.0000  0.0000  0.0000 -0.0000 -1.0000      0.0000  0.0000  0.0000  0.0000  0.0000  0.0000  0.0000  0.0000  0.0000  0.0000
  o =  0.2739  v = -0.0000  0.0000  0.0000 -0.0000 -1.0000  0.0000  0.0000  0.0000  0.0000  0.0000      0.0000  0.0000  0.0000  0.0000  0.0000  0.0000  0.0000  0.0000  0.0000  0.0000
  o =  0.3135  v =  0.0000  0.0000  0.0000  0.0000  0.0000 -0.3115  0.0000  0.9503 -0.0000  0.0000      0.0000  0.0000  0.0000  0.0000  0.0000  0.0000  0.0000  0.0000  0.0000  0.0000
  o =  0.3135  v = -0.3115  0.0000  0.9503 -0.0000  0.0000  0.0000  0.0000  0.0000  0.0000  0.0000      0.0000  0.0000  0.0000  0.0000  0.0000  0.0000  0.0000  0.0000  0.0000  0.0000
 
     EDDAV:  cpu time    0.5575: real time    0.5575
       DOS:  cpu time    0.0006: real time    0.0006
    CHARGE:  cpu time    0.0275: real time    0.0275
    MIXING:  cpu time    0.0004: real time    0.0004
    --------------------------------------------
      LOOP:  cpu time    0.5963: real time    0.5963

 eigenvalue-minimisations  :  3160
 total energy-change (2. order) : 0.1453575E+03  (-0.6247187E+02)
 number of electron      47.9999990 magnetization 
 augmentation part       14.0234698 magnetization 

 Broyden mixing:
  rms(total) = 0.37839E+02    rms(broyden)= 0.37839E+02
  rms(prec ) = 0.38269E+02
  weight for this iteration     100.00

 eigenvalues of (default mixing * dielectric matrix)
  average eigenvalue GAMMA=   0.7590
  1.1105  1.1105  0.6415  0.1733

 Free energy of the ion-electron system (eV)
  ---------------------------------------------------
  alpha Z        PSCENC =       184.33841299
  Ewald energy   TEWEN  =     -3605.37491913
  -Hartree energ DENC   =     -1034.54036124
  -exchange      EXHF   =         0.00000000
  -V(xc)+E(xc)   XCENC  =       230.61030326
  PAW double counting   =     38014.51143222   -38061.86776964
  entropy T*S    EENTRO =        -0.00040475
  eigenvalues    EBANDS =      -699.41648174
  atomic energy  EATOM  =      4905.65827411
  Solvation  Ediel_sol  =         0.00000000
  ---------------------------------------------------
  free energy    TOTEN  =       -66.08151391 eV

  energy without entropy =      -66.08110916  energy(sigma->0) =      -66.08131154


--------------------------------------------------------------------------------------------------------




--------------------------------------- Iteration      1(  10)  ---------------------------------------


    POTLOK:  cpu time    0.0080: real time    0.0080
    SETDIJ:  cpu time    0.0025: real time    0.0025
atom =   1  type =  1  l = 2
 
 onsite density matrix
 
spin component  1
 
  0.1828  0.0000  0.0385  0.0000  0.0000
  0.0000  0.2658  0.0000  0.0431  0.0000
  0.0385  0.0000  0.3033  0.0000  0.0000
  0.0000  0.0431  0.0000  0.2658  0.0000
  0.0000  0.0000  0.0000  0.0000  0.2269
 
spin component  2
 
  0.1828  0.0000  0.0385  0.0000  0.0000
  0.0000  0.2658  0.0000  0.0431  0.0000
  0.0385  0.0000  0.3033  0.0000  0.0000
  0.0000  0.0431  0.0000  0.2658  0.0000
  0.0000  0.0000  0.0000  0.0000  0.2269
 
 occupancies and eigenvectors
 
  o =  0.1715  v =  0.9598  0.0000 -0.2806 -0.0000  0.0000  0.0000  0.0000  0.0000  0.0000  0.0000      0.0000  0.0000  0.0000  0.0000  0.0000  0.0000  0.0000  0.0000  0.0000  0.0000
  o =  0.1715  v =  0.0000  0.0000  0.0000  0.0000  0.0000  0.9598  0.0000 -0.2806 -0.0000  0.0000      0.0000  0.0000  0.0000  0.0000  0.0000  0.0000  0.0000  0.0000  0.0000  0.0000
  o =  0.2227  v = -0.0000  0.7071 -0.0000 -0.7071  0.0000  0.0000  0.0000  0.0000  0.0000  0.0000      0.0000  0.0000  0.0000  0.0000  0.0000  0.0000  0.0000  0.0000  0.0000  0.0000
  o =  0.2227  v =  0.0000  0.0000  0.0000  0.0000  0.0000 -0.0000  0.7071 -0.0000 -0.7071  0.0000      0.0000  0.0000  0.0000  0.0000  0.0000  0.0000  0.0000  0.0000  0.0000  0.0000
  o =  0.2269  v = -0.0000 -0.0000 -0.0000  0.0000  1.0000  0.0000  0.0000  0.0000  0.0000  0.0000      0.0000  0.0000  0.0000  0.0000  0.0000  0.0000  0.0000  0.0000  0.0000  0.0000
  o =  0.2269  v =  0.0000  0.0000  0.0000  0.0000  0.0000 -0.0000 -0.0000 -0.0000  0.0000  1.0000      0.0000  0.0000  0.0000  0.0000  0.0000  0.0000  0.0000  0.0000  0.0000  0.0000
  o =  0.3089  v =  0.0000  0.0000  0.0000  0.0000  0.0000 -0.0000  0.7071 -0.0000  0.7071 -0.0000      0.0000  0.0000  0.0000  0.0000  0.0000  0.0000  0.0000  0.0000  0.0000  0.0000
  o =  0.3089  v = -0.0000  0.7071 -0.0000  0.7071 -0.0000  0.0000  0.0000  0.0000  0.0000  0.0000      0.0000  0.0000  0.0000  0.0000  0.0000  0.0000  0.0000  0.0000  0.0000  0.0000
  o =  0.3145  v =  0.0000  0.0000  0.0000  0.0000  0.0000 -0.2806 -0.0000 -0.9598 -0.0000 -0.0000      0.0000  0.0000  0.0000  0.0000  0.0000  0.0000  0.0000  0.0000  0.0000  0.0000
  o =  0.3145  v = -0.2806 -0.0000 -0.9598 -0.0000 -0.0000  0.0000  0.0000  0.0000  0.0000  0.0000      0.0000  0.0000  0.0000  0.0000  0.0000  0.0000  0.0000  0.0000  0.0000  0.0000
 
atom =   2  type =  1  l = 2
 
 onsite density matrix
 
spin component  1
 
  0.1828  0.0000 -0.0385  0.0000 -0.0000
  0.0000  0.2658  0.0000 -0.0431  0.0000
 -0.0385  0.0000  0.3033  0.0000  0.0000
  0.0000 -0.0431  0.0000  0.2658  0.0000
 -0.0000  0.0000  0.0000  0.0000  0.2269
 
spin component  2
 
  0.1828  0.0000 -0.0385  0.0000 -0.0000
  0.0000  0.2658  0.0000 -0.0431  0.0000
 -0.0385  0.0000  0.3033  0.0000  0.0000
  0.0000 -0.0431  0.0000  0.2658  0.0000
 -0.0000  0.0000  0.0000  0.0000  0.2269
 
 occupancies and eigenvectors
 
  o =  0.1715  v =  0.9598 -0.0000  0.2806 -0.0000 -0.0000  0.0000  0.0000  0.0000  0.0000  0.0000      0.0000  0.0000  0.0000  0.0000  0.0000  0.0000  0.0000  0.0000  0.0000  0.0000
  o =  0.1715  v =  0.0000  0.0000  0.0000  0.0000  0.0000  0.9598 -0.0000  0.2806 -0.0000 -0.0000      0.0000  0.0000  0.0000  0.0000  0.0000  0.0000  0.0000  0.0000  0.0000  0.0000
  o =  0.2227  v = -0.0000 -0.7071  0.0000 -0.7071 -0.0000  0.0000  0.0000  0.0000  0.0000  0.0000      0.0000  0.0000  0.0000  0.0000  0.0000  0.0000  0.0000  0.0000  0.0000  0.0000
  o =  0.2227  v =  0.0000  0.0000  0.0000  0.0000  0.0000 -0.0000 -0.7071  0.0000 -0.7071 -0.0000      0.0000  0.0000  0.0000  0.0000  0.0000  0.0000  0.0000  0.0000  0.0000  0.0000
  o =  0.2269  v = -0.0000  0.0000  0.0000  0.0000 -1.0000  0.0000  0.0000  0.0000  0.0000  0.0000      0.0000  0.0000  0.0000  0.0000  0.0000  0.0000  0.0000  0.0000  0.0000  0.0000
  o =  0.2269  v =  0.0000  0.0000  0.0000  0.0000  0.0000 -0.0000  0.0000  0.0000  0.0000 -1.0000      0.0000  0.0000  0.0000  0.0000  0.0000  0.0000  0.0000  0.0000  0.0000  0.0000
  o =  0.3089  v =  0.0000  0.0000  0.0000  0.0000  0.0000 -0.0000  0.7071  0.0000 -0.7071 -0.0000      0.0000  0.0000  0.0000  0.0000  0.0000  0.0000  0.0000  0.0000  0.0000  0.0000
  o =  0.3089  v = -0.0000  0.7071  0.0000 -0.7071 -0.0000  0.0000  0.0000  0.0000  0.0000  0.0000      0.0000  0.0000  0.0000  0.0000  0.0000  0.0000  0.0000  0.0000  0.0000  0.0000
  o =  0.3145  v =  0.0000  0.0000  0.0000  0.0000  0.0000 -0.2806 -0.0000  0.9598  0.0000  0.0000      0.0000  0.0000  0.0000  0.0000  0.0000  0.0000  0.0000  0.0000  0.0000  0.0000
  o =  0.3145  v = -0.2806 -0.0000  0.9598  0.0000  0.0000  0.0000  0.0000  0.0000  0.0000  0.0000      0.0000  0.0000  0.0000  0.0000  0.0000  0.0000  0.0000  0.0000  0.0000  0.0000
 
     EDDAV:  cpu time    0.4869: real time    0.4869
[...]
     16       1.7686      2.00000
     17       1.8405      2.00000
     18       1.8405      2.00000
     19       2.7075      2.00000
     20       2.7075      2.00000
     21       3.1998      2.00000
     22       3.1998      2.00000
     23       4.1002      2.00000
     24       4.1002      2.00000
     25       9.0544      0.00000
     26       9.0544      0.00000
     27       9.3291      0.00000
     28       9.3291      0.00000

 k-point    32 :       0.1667    0.0000    0.5000
  band No.  band energies     occupation 
      1     -52.3014      2.00000
      2     -52.3014      2.00000
      3     -28.8218      2.00000
      4     -28.8218      2.00000
      5     -28.4701      2.00000
      6     -28.4701      2.00000
      7     -28.4560      2.00000
      8     -28.4560      2.00000
      9     -11.4577      2.00000
     10     -11.4577      2.00000
     11     -11.1330      2.00000
     12     -11.1330      2.00000
     13       0.9152      2.00000
     14       0.9152      2.00000
     15       1.3911      2.00000
     16       1.3911      2.00000
     17       2.1734      2.00000
     18       2.1734      2.00000
     19       2.7436      2.00000
     20       2.7436      2.00000
     21       3.4934      2.00000
     22       3.4934      2.00000
     23       4.0076      2.00000
     24       4.0076      2.00000
     25       8.7730      0.00000
     26       8.7730      0.00000
     27       9.3407      0.00000
     28       9.3407      0.00000

 k-point    33 :       0.3333    0.0000    0.5000
  band No.  band energies     occupation 
      1     -52.3013      2.00000
      2     -52.3013      2.00000
      3     -28.8269      2.00000
      4     -28.8269      2.00000
      5     -28.4658      2.00000
      6     -28.4658      2.00000
      7     -28.4554      2.00000
      8     -28.4554      2.00000
      9     -11.5709      2.00000
     10     -11.5709      2.00000
     11     -11.0075      2.00000
     12     -11.0075      2.00000
     13       0.6048      2.00000
     14       0.6048      2.00000
     15       1.4252      2.00000
     16       1.4252      2.00000
     17       2.1727      2.00000
     18       2.1727      2.00000
     19       2.9024      2.00000
     20       2.9024      2.00000
     21       3.7244      2.00000
     22       3.7244      2.00000
     23       4.1627      2.00000
     24       4.1627      2.00000
     25       8.2678      0.00000
     26       8.2678      0.00000
     27       9.3627      0.00000
     28       9.3627      0.00000

 k-point    34 :       0.5000    0.0000    0.5000
  band No.  band energies     occupation 
      1     -52.3013      2.00000
      2     -52.3013      2.00000
      3     -28.8293      2.00000
      4     -28.8293      2.00000
      5     -28.4639      2.00000
      6     -28.4639      2.00000
      7     -28.4549      2.00000
      8     -28.4549      2.00000
      9     -11.6117      2.00000
     10     -11.6117      2.00000
     11     -10.9605      2.00000
     12     -10.9605      2.00000
     13       0.4608      2.00000
     14       0.4608      2.00000
     15       1.5189      2.00000
     16       1.5189      2.00000
     17       2.0976      2.00000
     18       2.0976      2.00000
     19       3.0351      2.00000
     20       3.0351      2.00000
     21       3.5709      2.00000
     22       3.5709      2.00000
     23       4.4807      2.00000
     24       4.4807      2.00000
     25       8.0007      0.00000
     26       8.0007      0.00000
     27       9.3727      0.00000
     28       9.3727      0.00000

 k-point    35 :       0.1667    0.1667    0.5000
  band No.  band energies     occupation 
      1     -52.3014      2.00000
      2     -52.3014      2.00000
      3     -28.8260      2.00000
      4     -28.8200      2.00000
      5     -28.4729      2.00000
      6     -28.4652      2.00000
      7     -28.4566      2.00000
      8     -28.4556      2.00000
      9     -11.5731      2.00000
     10     -11.3270      2.00000
     11     -11.2638      2.00000
     12     -11.0083      2.00000
     13       0.6641      2.00000
     14       1.1503      2.00000
     15       1.2771      2.00000
     16       1.4028      2.00000
     17       1.5491      2.00000
     18       2.7071      2.00000
     19       2.7634      2.00000
     20       2.8663      2.00000
     21       3.4629      2.00000
     22       3.8207      2.00000
     23       3.8691      2.00000
     24       4.1299      2.00000
     25       8.4499      0.00000
     26       8.9531      0.00000
     27       9.3390      0.00000
     28       9.3596      0.00000

 k-point    36 :       0.3333    0.1667    0.5000
  band No.  band energies     occupation 
      1     -52.3013      2.00000
      2     -52.3013      2.00000
      3     -28.8284      2.00000
      4     -28.8225      2.00000
      5     -28.4710      2.00000
      6     -28.4634      2.00000
      7     -28.4564      2.00000
      8     -28.4555      2.00000
      9     -11.6147      2.00000
     10     -11.4613      2.00000
     11     -11.1202      2.00000
     12     -10.9574      2.00000
     13       0.4717      2.00000
     14       0.7795      2.00000
     15       1.2901      2.00000
     16       1.4924      2.00000
     17       1.6100      2.00000
     18       2.5181      2.00000
     19       2.8068      2.00000
     20       2.9318      2.00000
     21       3.6614      2.00000
     22       4.0648      2.00000
     23       4.1712      2.00000
     24       4.3706      2.00000
     25       8.1446      0.00000
     26       8.5282      0.00000
     27       9.3608      0.00000
     28       9.3795      0.00000

 k-point    37 :       0.5000    0.1667    0.5000
  band No.  band energies     occupation 
      1     -52.3014      2.00000
      2     -52.3014      2.00000
      3     -28.8267      2.00000
      4     -28.8267      2.00000
      5     -28.4663      2.00000
      6     -28.4663      2.00000
      7     -28.4558      2.00000
      8     -28.4558      2.00000
      9     -11.5737      2.00000
     10     -11.5737      2.00000
     11     -10.9985      2.00000
     12     -10.9985      2.00000
     13       0.4859      2.00000
     14       0.4859      2.00000
     15       1.3894      2.00000
     16       1.3894      2.00000
     17       2.0729      2.00000
     18       2.0729      2.00000
     19       2.8673      2.00000
     20       2.8673      2.00000
     21       3.8643      2.00000
     22       3.8643      2.00000
     23       4.5575      2.00000
     24       4.5575      2.00000
     25       8.1181      0.00000
     26       8.1181      0.00000
     27       9.3805      0.00000
     28       9.3805      0.00000

 k-point    38 :       0.3333    0.3333    0.5000
  band No.  band energies     occupation 
      1     -52.3013      2.00000
      2     -52.3013      2.00000
      3     -28.8257      2.00000
      4     -28.8196      2.00000
      5     -28.4739      2.00000
      6     -28.4662      2.00000
      7     -28.4573      2.00000
      8     -28.4563      2.00000
      9     -11.5783      2.00000
     10     -11.3754      2.00000
     11     -11.2027      2.00000
     12     -10.9903      2.00000
     13       0.4365      2.00000
     14       0.9399      2.00000
     15       0.9745      2.00000
     16       1.1813      2.00000
     17       1.7272      2.00000
     18       2.4260      2.00000
     19       2.7264      2.00000
     20       2.7865      2.00000
     21       4.0104      2.00000
     22       4.2243      2.00000
     23       4.4571      2.00000
     24       4.6766      2.00000
     25       8.1731      0.00000
     26       8.7627      0.00000
     27       9.2537      0.00000
     28       9.3786      0.00000

 k-point    39 :       0.5000    0.3333    0.5000
  band No.  band energies     occupation 
      1     -52.3013      2.00000
      2     -52.3013      2.00000
      3     -28.8212      2.00000
      4     -28.8212      2.00000
      5     -28.4716      2.00000
      6     -28.4716      2.00000
      7     -28.4571      2.00000
      8     -28.4571      2.00000
      9     -11.4759      2.00000
     10     -11.4759      2.00000
     11     -11.0957      2.00000
     12     -11.0957      2.00000
     13       0.5818      2.00000
     14       0.5818      2.00000
     15       1.0880      2.00000
     16       1.0880      2.00000
     17       2.0186      2.00000
     18       2.0186      2.00000
     19       2.7619      2.00000
     20       2.7619      2.00000
     21       4.1931      2.00000
     22       4.1931      2.00000
     23       4.7479      2.00000
     24       4.7479      2.00000
     25       8.4212      0.00000
     26       8.4212      0.00000
     27       9.3951      0.00000
     28       9.3951      0.00000

 k-point    40 :       0.5000    0.5000    0.5000
  band No.  band energies     occupation 
      1     -52.3013      2.00000
      2     -52.3013      2.00000
      3     -28.8185      2.00000
      4     -28.8185      2.00000
      5     -28.4745      2.00000
      6     -28.4745      2.00000
      7     -28.4577      2.00000
      8     -28.4577      2.00000
      9     -11.3992      2.00000
     10     -11.3992      2.00000
     11     -11.1722      2.00000
     12     -11.1722      2.00000
     13       0.7809      2.00000
     14       0.7809      2.00000
     15       0.7881      2.00000
     16       0.7881      2.00000
     17       1.9967      2.00000
     18       1.9967      2.00000
     19       2.7401      2.00000
     20       2.7401      2.00000
     21       4.3051      2.00000
     22       4.3051      2.00000
     23       4.8596      2.00000
     24       4.8596      2.00000
     25       8.6760      0.00000
     26       8.6760      0.00000
     27       9.2270      0.00000
     28       9.2814      0.00000


--------------------------------------------------------------------------------------------------------


 soft charge-density along one line, spin component           1
         0         1         2         3         4         5         6         7         8         9
 total charge-density along one line
 
 pseudopotential strength for first ion, spin component:           1
 -3.435 -21.690  -0.000   0.000  -0.000   0.000  -0.000   0.000
-21.690   9.443  -0.000   0.000  -0.000  -0.000   0.000  -0.000
 -0.000  -0.000 -25.000   0.000   0.006   8.868  -0.000  -0.004
  0.000   0.000   0.000 -25.009  -0.000  -0.000   8.873   0.000
 -0.000  -0.000   0.006  -0.000 -25.000  -0.004   0.000   8.868
  0.000  -0.000   8.868  -0.000  -0.004   5.702   0.000   0.001
 -0.000   0.000  -0.000   8.873   0.000   0.000   5.703  -0.000
  0.000  -0.000  -0.004   0.000   8.868   0.001  -0.000   5.702
  0.004   0.002  -0.000  -0.000  -0.000   0.000   0.000   0.000
  0.000   0.000   0.000  -0.000  -0.000  -0.000   0.000   0.000
 -0.004  -0.001   0.000   0.000   0.000  -0.000  -0.000  -0.000
 -0.000  -0.000  -0.000  -0.000   0.000   0.000   0.000  -0.000
  0.000   0.000   0.000   0.000  -0.000  -0.000  -0.000   0.000
  0.005   0.002  -0.000  -0.000  -0.000   0.000   0.000   0.000
  0.000   0.000   0.000  -0.000  -0.000  -0.000   0.000   0.000
 -0.005  -0.002   0.000   0.000   0.000  -0.000  -0.000  -0.000
 -0.000  -0.000  -0.000  -0.000   0.000   0.000   0.000  -0.000
  0.000   0.000   0.000   0.000  -0.000  -0.000  -0.000   0.000
 total augmentation occupancy for first ion, spin component:           1
  1.989  -0.119   0.000   0.000   0.000   0.000   0.000   0.000   0.001   0.000   0.016   0.000   0.000  -0.001   0.000  -0.013
 -0.119   1.578   0.000   0.000   0.000   0.000   0.000   0.000   0.081   0.000   0.365   0.000   0.000  -0.069   0.000  -0.260
  0.000   0.000   1.964   0.000  -0.000  -0.079   0.000  -0.000   0.000   0.000   0.000   0.000   0.000   0.000   0.000   0.000
  0.000   0.000   0.000   1.964   0.000   0.000  -0.075   0.000   0.000   0.000   0.000   0.000   0.000   0.000   0.000   0.000
  0.000   0.000  -0.000   0.000   1.964  -0.000   0.000  -0.079   0.000   0.000   0.000   0.000   0.000   0.000   0.000   0.000
  0.000   0.000  -0.079   0.000  -0.000   0.204   0.000  -0.000   0.000   0.000   0.000   0.000   0.000   0.000   0.000   0.000
  0.000   0.000   0.000  -0.075   0.000   0.000   0.233   0.000   0.000   0.000   0.000   0.000   0.000   0.000   0.000   0.000
  0.000   0.000  -0.000   0.000  -0.079  -0.000   0.000   0.204   0.000   0.000   0.000   0.000   0.000   0.000   0.000   0.000
  0.001   0.081   0.000   0.000   0.000   0.000   0.000   0.000   5.734   0.000  -2.746   0.000  -0.000  -3.590   0.000   1.799
  0.000   0.000   0.000   0.000   0.000   0.000   0.000   0.000   0.000   5.087   0.000  -2.988   0.000   0.000  -3.146   0.000
  0.016   0.365   0.000   0.000   0.000   0.000   0.000   0.000  -2.746   0.000   4.254   0.000   0.000   1.802   0.000  -2.701
  0.000   0.000   0.000   0.000   0.000   0.000   0.000   0.000   0.000  -2.988   0.000   5.087   0.000   0.000   1.952   0.000
  0.000   0.000   0.000   0.000   0.000   0.000   0.000   0.000  -0.000   0.000   0.000   0.000   1.779   0.000   0.000  -0.000
 -0.001  -0.069   0.000   0.000   0.000   0.000   0.000   0.000  -3.590   0.000   1.802   0.000   0.000   2.297   0.000  -1.203
  0.000   0.000   0.000   0.000   0.000   0.000   0.000   0.000   0.000  -3.146   0.000   1.952   0.000   0.000   1.990   0.000
 -0.013  -0.260   0.000   0.000   0.000   0.000   0.000   0.000   1.799   0.000  -2.701   0.000  -0.000  -1.203   0.000   1.738
  0.000   0.000   0.000   0.000   0.000   0.000   0.000   0.000   0.000   1.952   0.000  -3.146   0.000   0.000  -1.302   0.000
 -0.000  -0.000   0.000   0.000   0.000   0.000   0.000   0.000   0.000   0.000  -0.000   0.000  -0.953  -0.000   0.000   0.000


------------------------ aborting loop because EDIFF is reached ----------------------------------------


    CHARGE:  cpu time    0.0288: real time    0.0288
    FORLOC:  cpu time    0.0011: real time    0.0011
    FORNL :  cpu time    0.1382: real time    0.1384
    STRESS:  cpu time    0.5650: real time    0.5651
    FORCOR:  cpu time    0.0083: real time    0.0083
    FORHAR:  cpu time    0.0023: real time    0.0023
    MIXING:  cpu time    0.0011: real time    0.0011
    OFIELD:  cpu time    0.0000: real time    0.0000

  FORCE on cell =-STRESS in cart. coord.  units (eV):
  Direction    XX          YY          ZZ          XY          YZ          ZX
  --------------------------------------------------------------------------------------
  Alpha Z   184.33841   184.33841   184.33841
  Ewald   -1386.22826 -1386.22826  -832.92112    -0.00000    -0.00000    -0.00000
  Hartree   302.03172   302.03172   613.89550    -0.00000    -0.00000    -0.00000
  E(xc)    -246.74067  -246.74067  -246.07833    -0.00000    -0.00000    -0.00000
  Local      84.02248    84.02248  -769.36404     0.00000    -0.00000    -0.00000
  n-local    15.60832    17.00635    11.93320    -0.93811    -0.03062    -0.18813
  augment   289.92114   289.92114   289.67359    -0.00000    -0.00000     0.00000
  Kinetic   762.79219   759.77581   755.33587     0.02365    -0.56144    -0.98453
  Fock        0.00000     0.00000     0.00000     0.00000     0.00000     0.00000
  -------------------------------------------------------------------------------------
  Total       4.93616     4.93616     6.81307     0.00000     0.00000     0.00000
  in kB     127.45226   127.45226   175.91422     0.00000     0.00000     0.00000
  external pressure =      143.61 kB  Pullay stress =        0.00 kB


 VOLUME and BASIS-vectors are now :
 -----------------------------------------------------------------------------
  energy-cutoff  :      500.00
  volume of cell :       62.05
      direct lattice vectors                 reciprocal lattice vectors
     4.584000000  0.000000000  0.000000000     0.218150087  0.000000000  0.000000000
     0.000000000  4.584000000  0.000000000     0.000000000  0.218150087  0.000000000
     0.000000000  0.000000000  2.953000000     0.000000000  0.000000000  0.338638673

  length of vectors
     4.584000000  4.584000000  2.953000000     0.218150087  0.218150087  0.338638673


 FORCES acting on ions
    electron-ion (+dipol)            ewald-force                    non-local-force                 convergence-correction
 -----------------------------------------------------------------------------------------------
   0.790E-13 -.100E-13 -.655E-13   0.142E-12 0.142E-12 0.108E-13   0.131E-22 0.155E-22 -.325E-22   -.198E-12 -.412E-13 0.101E-13
   0.103E-11 0.406E-11 0.297E-11   0.284E-13 -.114E-12 0.129E-13   -.716E-23 0.896E-23 -.195E-22   0.253E-13 0.292E-15 0.207E-13
   -.413E+02 0.413E+02 -.780E-12   0.454E+02 -.454E+02 -.865E-14   -.401E+01 0.401E+01 -.977E-19   -.121E-02 0.121E-02 0.123E-12
   0.413E+02 -.413E+02 -.685E-11   -.454E+02 0.454E+02 -.882E-14   0.401E+01 -.401E+01 -.443E-18   0.121E-02 -.121E-02 -.108E-12
   0.413E+02 0.413E+02 0.177E-06   -.454E+02 -.454E+02 -.855E-14   0.401E+01 0.401E+01 -.118E-17   0.121E-02 0.121E-02 -.231E-13
   -.413E+02 -.413E+02 -.177E-06   0.454E+02 0.454E+02 -.855E-14   -.401E+01 -.401E+01 -.870E-18   -.121E-02 -.121E-02 0.270E-13
 -----------------------------------------------------------------------------------------------
   -.232E-11 0.559E-11 0.270E-11   0.000E+00 -.711E-14 -.108E-13   -.888E-15 0.000E+00 -.259E-17   -.146E-12 -.215E-13 0.493E-13
 
 
 POSITION                                       TOTAL-FORCE (eV/Angst)
 -----------------------------------------------------------------------------------
      0.00000      0.00000      0.00000        -0.000000      0.000000     -0.000000
      2.29200      2.29200      1.47650         0.000000      0.000000     -0.000000
      0.89955      3.68445      1.47650         0.068955     -0.068955     -0.000000
      3.68445      0.89955      1.47650        -0.068955      0.068955      0.000000
      1.39245      1.39245      0.00000        -0.068955     -0.068955     -0.000000
      3.19155      3.19155      0.00000         0.068955      0.068955      0.000000
 -----------------------------------------------------------------------------------
    total drift:                               -0.000000      0.000000      0.000000


--------------------------------------------------------------------------------------------------------



  FREE ENERGIE OF THE ION-ELECTRON SYSTEM (eV)
  ---------------------------------------------------
  free  energy   TOTEN  =       -48.40385836 eV

  energy  without entropy=      -48.40385836  energy(sigma->0) =      -48.40385836
 


--------------------------------------------------------------------------------------------------------


    POTLOK:  cpu time    0.0102: real time    0.0102


--------------------------------------------------------------------------------------------------------


 writing wavefunctions
     LOOP+:  cpu time   15.8886: real time   16.2395
    4ORBIT:  cpu time    0.0000: real time    0.0000

 total amount of memory used by VASP MPI-rank0    59142. kBytes
=======================================================================

   base      :      30000. kBytes
   nonl-proj :      18632. kBytes
   fftplans  :        946. kBytes
   grid      :       1981. kBytes
   one-center:         93. kBytes
   wavefun   :       7490. kBytes
 
  
  
 General timing and accounting informations for this job:
 ========================================================
  
                  Total CPU time used (sec):       16.668
                            User time (sec):       16.312
                          System time (sec):        0.356
                         Elapsed time (sec):       18.248
  
                   Maximum memory used (kb):      220400.
                   Average memory used (kb):          N/A
  
                          Minor page faults:        24006
                          Major page faults:         1383
                 Voluntary context switches:         3523
