<?xml version="1.0" encoding="ISO-8859-1"?>
<modeling>
 <generator>
  <i name="program" type="string">vasp </i>
  <i name="version" type="string">6.2.0  </i>
  <i name="subversion" type="string">18Jan21 (build Oct 14 2021 17:49:53) complex                          parallel </i>
  <i name="platform" type="string">LinuxIFC </i>
  <i name="date" type="string">2022 04 02 </i>
  <i name="time" type="string">12:29:09 </i>
 </generator>
 <incar>
  <i type="string" name="SYSTEM">TiO2</i>
  <i type="int" name="ISTART">     0</i>
  <i type="int" name="ICHARG">     0</i>
  <i name="EDIFF">      0.00001000</i>
  <i name="ENCUT">    500.00000000</i>
  <i type="int" name="ISMEAR">     0</i>
  <i name="SIGMA">      0.01000000</i>
  <i type="int" name="LMAXMIX">     4</i>
  <i type="logical" name="LDAU"> T  </i>
  <i type="int" name="LDAUTYPE">     2</i>
  <v type="int" name="LDAUL">     2    -1</v>
  <v name="LDAUU">      3.90000000      0.00000000</v>
  <v name="LDAUJ">      0.00000000      0.00000000</v>
  <i type="int" name="LDAUPRINT">     2</i>
 </incar>
 <primitive_cell>
  <structure name="primitive_cell" >
   <crystal>
    <varray name="basis" >
     <v>       4.58400000       0.00000000       0.00000000 </v>
     <v>       0.00000000       4.58400000       0.00000000 </v>
     <v>       0.00000000       0.00000000       2.95300000 </v>
    </varray>
    <i name="volume">     62.05155437 </i>
    <varray name="rec_basis" >
     <v>       0.21815009       0.00000000       0.00000000 </v>
     <v>       0.00000000       0.21815009       0.00000000 </v>
     <v>       0.00000000       0.00000000       0.33863867 </v>
    </varray>
   </crystal>
   <varray name="positions" >
    <v>       0.00000000       0.00000000       0.00000000 </v>
    <v>       0.50000000       0.50000000       0.50000000 </v>
    <v>       0.19623686       0.80376314       0.50000000 </v>
    <v>       0.80376314       0.19623686       0.50000000 </v>
    <v>       0.30376314       0.30376314       0.00000000 </v>
    <v>       0.69623686       0.69623686       0.00000000 </v>
   </varray>
  </structure>
  <varray name="primitive_index" >
   <v type="int" >        1 </v>
   <v type="int" >        2 </v>
   <v type="int" >        3 </v>
   <v type="int" >        4 </v>
   <v type="int" >        5 </v>
   <v type="int" >        6 </v>
  </varray>
 </primitive_cell>
 <kpoints>
  <generation param="Gamma">
   <v type="int" name="divisions">       6        6        6 </v>
   <v name="usershift">      0.00000000       0.00000000       0.00000000 </v>
   <v name="genvec1">      0.16666667       0.00000000       0.00000000 </v>
   <v name="genvec2">      0.00000000       0.16666667       0.00000000 </v>
   <v name="genvec3">      0.00000000       0.00000000       0.16666667 </v>
   <v name="shift">      0.00000000       0.00000000       0.00000000 </v>
  </generation>
  <varray name="kpointlist" >
   <v>       0.00000000       0.00000000       0.00000000 </v>
   <v>       0.16666667       0.00000000       0.00000000 </v>
   <v>       0.33333333       0.00000000       0.00000000 </v>
   <v>       0.50000000       0.00000000       0.00000000 </v>
   <v>       0.16666667       0.16666667       0.00000000 </v>
   <v>       0.33333333       0.16666667       0.00000000 </v>
   <v>       0.50000000       0.16666667       0.00000000 </v>
   <v>       0.33333333       0.33333333       0.00000000 </v>
   <v>       0.50000000       0.33333333       0.00000000 </v>
   <v>       0.50000000       0.50000000       0.00000000 </v>
   <v>       0.00000000       0.00000000       0.16666667 </v>
   <v>       0.16666667       0.00000000       0.16666667 </v>
   <v>       0.33333333       0.00000000       0.16666667 </v>
   <v>       0.50000000       0.00000000       0.16666667 </v>
   <v>       0.16666667       0.16666667       0.16666667 </v>
   <v>       0.33333333       0.16666667       0.16666667 </v>
   <v>       0.50000000       0.16666667       0.16666667 </v>
   <v>       0.33333333       0.33333333       0.16666667 </v>
   <v>       0.50000000       0.33333333       0.16666667 </v>
   <v>       0.50000000       0.50000000       0.16666667 </v>
   <v>       0.00000000       0.00000000       0.33333333 </v>
   <v>       0.16666667       0.00000000       0.33333333 </v>
   <v>       0.33333333       0.00000000       0.33333333 </v>
   <v>       0.50000000       0.00000000       0.33333333 </v>
   <v>       0.16666667       0.16666667       0.33333333 </v>
   <v>       0.33333333       0.16666667       0.33333333 </v>
   <v>       0.50000000       0.16666667       0.33333333 </v>
   <v>       0.33333333       0.33333333       0.33333333 </v>
   <v>       0.50000000       0.33333333       0.33333333 </v>
   <v>       0.50000000       0.50000000       0.33333333 </v>
   <v>       0.00000000       0.00000000       0.50000000 </v>
   <v>       0.16666667       0.00000000       0.50000000 </v>
   <v>       0.33333333       0.00000000       0.50000000 </v>
   <v>       0.50000000       0.00000000       0.50000000 </v>
   <v>       0.16666667       0.16666667       0.50000000 </v>
   <v>       0.33333333       0.16666667       0.50000000 </v>
   <v>       0.50000000       0.16666667       0.50000000 </v>
   <v>       0.33333333       0.33333333       0.50000000 </v>
   <v>       0.50000000       0.33333333       0.50000000 </v>
   <v>       0.50000000       0.50000000       0.50000000 </v>
  </varray>
  <varray name="weights" >
   <v>       0.00462963 </v>
   <v>       0.01851852 </v>
   <v>       0.01851852 </v>
   <v>       0.00925926 </v>
   <v>       0.01851852 </v>
   <v>       0.03703704 </v>
   <v>       0.01851852 </v>
   <v>       0.01851852 </v>
   <v>       0.01851852 </v>
   <v>       0.00462963 </v>
   <v>       0.00925926 </v>
   <v>       0.03703704 </v>
   <v>       0.03703704 </v>
   <v>       0.01851852 </v>
   <v>       0.03703704 </v>
   <v>       0.07407407 </v>
   <v>       0.03703704 </v>
   <v>       0.03703704 </v>
   <v>       0.03703704 </v>
   <v>       0.00925926 </v>
   <v>       0.00925926 </v>
   <v>       0.03703704 </v>
   <v>       0.03703704 </v>
   <v>       0.01851852 </v>
   <v>       0.03703704 </v>
   <v>       0.07407407 </v>
   <v>       0.03703704 </v>
   <v>       0.03703704 </v>
   <v>       0.03703704 </v>
   <v>       0.00925926 </v>
   <v>       0.00462963 </v>
   <v>       0.01851852 </v>
   <v>       0.01851852 </v>
   <v>       0.00925926 </v>
   <v>       0.01851852 </v>
   <v>       0.03703704 </v>
   <v>       0.01851852 </v>
   <v>       0.01851852 </v>
   <v>       0.01851852 </v>
   <v>       0.00462963 </v>
  </varray>
 </kpoints>
 <parameters>
  <separator name="general" >
   <i type="string" name="SYSTEM">TiO2</i>
   <i type="logical" name="LCOMPAT"> F  </i>
  </separator>
  <separator name="electronic" >
   <i type="string" name="PREC">normal</i>
   <i name="ENMAX">    500.00000000</i>
   <i name="ENAUG">    482.84800000</i>
   <i name="EDIFF">      0.00001000</i>
   <i type="int" name="IALGO">    38</i>
   <i type="int" name="IWAVPR">    10</i>
   <i type="int" name="NBANDS">    28</i>
   <i type="int" name="NBANDSLOW">    -1</i>
   <i type="int" name="NBANDSHIGH">    -1</i>
   <i name="NELECT">     48.00000000</i>
   <i type="int" name="TURBO">     0</i>
   <i type="int" name="IRESTART">     0</i>
   <i type="int" name="NREBOOT">     0</i>
   <i type="int" name="NMIN">     0</i>
   <i name="EREF">      0.00000000</i>
   <separator name="electronic smearing" >
    <i type="int" name="ISMEAR">     0</i>
    <i name="SIGMA">      0.01000000</i>
    <i name="KSPACING">      0.50000000</i>
    <i type="logical" name="KGAMMA"> T  </i>
    <i type="logical" name="KBLOWUP"> T  </i>
   </separator>
   <separator name="electronic projectors" >
    <i type="logical" name="LREAL"> F  </i>
    <v name="ROPT">      0.00000000      0.00000000</v>
    <i type="int" name="LMAXPAW">  -100</i>
    <i type="int" name="LMAXMIX">     4</i>
    <i type="logical" name="NLSPLINE"> F  </i>
   </separator>
   <separator name="electronic startup" >
    <i type="int" name="ISTART">     0</i>
    <i type="int" name="ICHARG">     0</i>
    <i type="int" name="INIWAV">     1</i>
   </separator>
   <separator name="electronic spin" >
    <i type="int" name="ISPIN">     1</i>
    <i type="logical" name="LNONCOLLINEAR"> F  </i>
    <v name="MAGMOM">      1.00000000      1.00000000      1.00000000      1.00000000      1.00000000      1.00000000</v>
    <i name="NUPDOWN">     -1.00000000</i>
    <i type="logical" name="LSORBIT"> F  </i>
    <v name="SAXIS">      0.00000000      0.00000000      1.00000000</v>
    <i type="logical" name="LSPIRAL"> F  </i>
    <v name="QSPIRAL">      0.00000000      0.00000000      0.00000000</v>
    <i type="logical" name="LZEROZ"> F  </i>
   </separator>
   <separator name="electronic exchange-correlation" >
    <i type="logical" name="LASPH"> F  </i>
    <i type="logical" name="LMETAGGA"> F  </i>
   </separator>
   <separator name="electronic convergence" >
    <i type="int" name="NELM">    60</i>
    <i type="int" name="NELMDL">    -5</i>
    <i type="int" name="NELMIN">     2</i>
    <i name="ENINI">    500.00000000</i>
    <separator name="electronic convergence detail" >
     <i type="logical" name="LDIAG"> T  </i>
     <i type="logical" name="LSUBROT"> F  </i>
     <i name="WEIMIN">      0.00000000</i>
     <i name="EBREAK">      0.00000009</i>
     <i name="DEPER">      0.30000000</i>
     <i type="int" name="NRMM">     4</i>
     <i name="TIME">      0.40000000</i>
    </separator>
   </separator>
   <separator name="electronic mixer" >
    <i name="AMIX">      0.40000000</i>
    <i name="BMIX">      1.00000000</i>
    <i name="AMIN">      0.10000000</i>
    <i name="AMIX_MAG">      1.60000000</i>
    <i name="BMIX_MAG">      1.00000000</i>
    <separator name="electronic mixer details" >
     <i type="int" name="IMIX">     4</i>
     <i type="logical" name="MIXFIRST"> F  </i>
     <i type="int" name="MAXMIX">   -45</i>
     <i name="WC">    100.00000000</i>
     <i type="int" name="INIMIX">     1</i>
     <i type="int" name="MIXPRE">     1</i>
     <i type="int" name="MREMOVE">     5</i>
    </separator>
   </separator>
   <separator name="electronic dipolcorrection" >
    <i type="logical" name="LDIPOL"> F  </i>
    <i type="logical" name="LMONO"> F  </i>
    <i type="int" name="IDIPOL">     0</i>
    <i name="EPSILON">      1.00000000</i>
    <v name="DIPOL">   -100.00000000   -100.00000000   -100.00000000</v>
    <i name="EFIELD">      0.00000000</i>
   </separator>
  </separator>
  <separator name="grids" >
   <i type="int" name="NGX">    28</i>
   <i type="int" name="NGY">    28</i>
   <i type="int" name="NGZ">    16</i>
   <i type="int" name="NGXF">    56</i>
   <i type="int" name="NGYF">    56</i>
   <i type="int" name="NGZF">    32</i>
   <i type="logical" name="ADDGRID"> F  </i>
  </separator>
  <separator name="ionic" >
   <i type="int" name="NSW">     0</i>
   <i type="int" name="IBRION">    -1</i>
   <i type="int" name="MDALGO">     0</i>
   <i type="int" name="ISIF">     2</i>
   <i name="PSTRESS">      0.00000000</i>
   <i name="EDIFFG">      0.00010000</i>
   <i type="int" name="NFREE">     0</i>
   <i name="POTIM">      0.50000000</i>
   <i name="SMASS">     -3.00000000</i>
   <i name="SCALEE">      1.00000000</i>
  </separator>
  <separator name="ionic md" >
   <i name="TEBEG">      0.00010000</i>
   <i name="TEEND">      0.00010000</i>
   <i type="int" name="NBLOCK">     1</i>
   <i type="int" name="KBLOCK">     1</i>
   <i type="int" name="NPACO">   256</i>
   <i name="APACO">     16.00000000</i>
  </separator>
  <separator name="symmetry" >
   <i type="int" name="ISYM">     2</i>
   <i name="SYMPREC">      0.00001000</i>
  </separator>
  <separator name="dos" >
   <i type="int" name="LORBIT">     0</i>
   <v name="RWIGS">     -1.00000000     -1.00000000</v>
   <i type="int" name="NEDOS">   301</i>
   <i name="EMIN">     10.00000000</i>
   <i name="EMAX">    -10.00000000</i>
   <i name="EFERMI">      0.00000000</i>
  </separator>
  <separator name="writing" >
   <i type="int" name="NWRITE">     2</i>
   <i type="logical" name="LWAVE"> T  </i>
   <i type="logical" name="LDOWNSAMPLE"> F  </i>
   <i type="logical" name="LCHARG"> T  </i>
   <i type="logical" name="LPARD"> F  </i>
   <i type="logical" name="LVTOT"> F  </i>
   <i type="logical" name="LVHAR"> F  </i>
   <i type="logical" name="LELF"> F  </i>
   <i type="logical" name="LOPTICS"> F  </i>
   <v name="STM">      0.00000000      0.00000000      0.00000000      0.00000000      0.00000000      0.00000000      0.00000000</v>
  </separator>
  <separator name="performance" >
   <i type="int" name="NPAR">     4</i>
   <i type="int" name="NSIM">     4</i>
   <i type="int" name="NBLK">    -1</i>
   <i type="logical" name="LPLANE"> T  </i>
   <i type="logical" name="LSCALAPACK"> T  </i>
   <i type="logical" name="LSCAAWARE"> F  </i>
   <i type="logical" name="LSCALU"> F  </i>
   <i type="logical" name="LASYNC"> F  </i>
   <i type="logical" name="LORBITALREAL"> F  </i>
  </separator>
  <separator name="miscellaneous" >
   <i type="int" name="IDIOT">     3</i>
   <i type="int" name="PHON_NSTRUCT">    -1</i>
   <i type="logical" name="LMUSIC"> F  </i>
   <v name="POMASS">     47.88000000     16.00000000</v>
   <v name="DARWINR">      0.00000000      0.00000000</v>
   <v name="DARWINV">      1.00000000      1.00000000</v>
   <i type="logical" name="LCORR"> T  </i>
  </separator>
  <i type="logical" name="GGA_COMPAT"> T  </i>
  <i type="logical" name="LBERRY"> F  </i>
  <i type="int" name="ICORELEVEL">     0</i>
  <i type="logical" name="LDAU"> T  </i>
  <v type="int" name="LDAUTYPE">     2</v>
  <v type="int" name="LDAUL">     2</v>
  <v name="LDAUU">      3.90000000</v>
  <v name="LDAUJ">      0.00000000</v>
  <i type="int" name="LDAUPRINT">     2</i>
  <i type="int" name="I_CONSTRAINED_M">     0</i>
  <separator name="electronic exchange-correlation" >
   <i type="string" name="GGA">--</i>
   <i type="int" name="VOSKOWN">     0</i>
   <i type="logical" name="LHFCALC"> F  </i>
   <i type="string" name="PRECFOCK"></i>
   <i type="logical" name="LSYMGRAD"> F  </i>
   <i type="logical" name="LHFONE"> F  </i>
   <i type="logical" name="LRHFCALC"> F  </i>
   <i type="logical" name="LTHOMAS"> F  </i>
   <i type="logical" name="LMODELHF"> F  </i>
   <i type="logical" name="LFOCKACE"> F  </i>
   <i name="ENCUT4O">     -1.00000000</i>
   <i type="int" name="EXXOEP">     0</i>
   <i type="int" name="FOURORBIT">     0</i>
   <i name="AEXX">      0.00000000</i>
   <i name="HFALPHA">      0.00000000</i>
   <i name="MCALPHA">      0.00000000</i>
   <i name="ALDAX">      1.00000000</i>
   <i name="AGGAX">      1.00000000</i>
   <i name="ALDAC">      1.00000000</i>
   <i name="AGGAC">      1.00000000</i>
   <i type="int" name="NKREDX">     1</i>
   <i type="int" name="NKREDY">     1</i>
   <i type="int" name="NKREDZ">     1</i>
   <i type="logical" name="SHIFTRED"> F  </i>
   <i type="logical" name="ODDONLY"> F  </i>
   <i type="logical" name="EVENONLY"> F  </i>
   <i type="int" name="LMAXFOCK">     0</i>
   <i type="int" name="NMAXFOCKAE">     0</i>
   <i type="logical" name="LFOCKAEDFT"> F  </i>
   <i name="HFSCREEN">      0.00000000</i>
   <i name="HFSCREENC">      0.00000000</i>
   <i type="int" name="NBANDSGWLOW">     0</i>
  </separator>
  <separator name="vdW DFT" >
   <i type="logical" name="LUSE_VDW"> F  </i>
   <i name="Zab_VDW">     -0.84910000</i>
   <i name="PARAM1">      0.12340000</i>
   <i name="PARAM2">      1.00000000</i>
   <i name="PARAM3">      0.00000000</i>
  </separator>
  <separator name="model GW" >
   <i type="int" name="MODEL_GW">     0</i>
   <i name="MODEL_EPS0">      6.20515544</i>
   <i name="MODEL_ALPHA">      1.00000000</i>
  </separator>
  <separator name="linear response parameters" >
   <i type="logical" name="LEPSILON"> F  </i>
   <i type="logical" name="LRPA"> F  </i>
   <i type="logical" name="LNABLA"> F  </i>
   <i type="logical" name="LVEL"> F  </i>
   <i type="int" name="KINTER">     0</i>
   <i name="CSHIFT">      0.10000000</i>
   <i name="OMEGAMAX">     -1.00000000</i>
   <i name="DEG_THRESHOLD">      0.00200000</i>
   <i name="RTIME">     -0.10000000</i>
   <i name="WPLASMAI">      0.00000000</i>
   <v name="DFIELD">      0.00000000      0.00000000      0.00000000</v>
   <v name="WPLASMA">      0.00000000      0.00000000      0.00000000      0.00000000      0.00000000      0.00000000      0.00000000      0.00000000      0.00000000</v>
  </separator>
  <separator name="orbital magnetization" >
   <i type="logical" name="NUCIND"> F  </i>
   <v name="MAGPOS">      0.00000000      0.00000000      0.00000000</v>
   <i type="logical" name="LNICSALL"> T  </i>
   <i type="logical" name="ORBITALMAG"> F  </i>
   <i type="logical" name="LMAGBLOCH"> F  </i>
   <i type="logical" name="LCHIMAG"> F  </i>
   <i type="logical" name="LGAUGE"> T  </i>
   <i type="int" name="MAGATOM">     0</i>
   <v name="MAGDIPOL">      0.00000000      0.00000000      0.00000000</v>
   <v name="AVECCONST">      0.00000000      0.00000000      0.00000000</v>
  </separator>
  <separator name="response functions" >
   <i type="logical" name="LFINITE_TEMPERATURE"> F  </i>
   <i type="logical" name="LADDER"> F  </i>
   <i type="logical" name="LRPAFORCE"> F  </i>
   <i type="logical" name="LFXC"> F  </i>
   <i type="logical" name="LHARTREE"> T  </i>
   <i type="int" name="IBSE">     0</i>
   <v type="int" name="KPOINT">    -1     0     0     0</v>
   <i type="logical" name="LTCTC"> F  </i>
   <i type="logical" name="LTCTE"> F  </i>
   <i type="logical" name="LTETE"> F  </i>
   <i type="logical" name="LTRIPLET"> F  </i>
   <i type="logical" name="LFXCEPS"> F  </i>
   <i type="logical" name="LFXHEG"> F  </i>
   <i type="int" name="NATURALO">     2</i>
   <i type="logical" name="LHOLEGF"> F  </i>
   <i type="logical" name="L2ORDER"> F  </i>
   <i type="logical" name="LDMP1"> F  </i>
   <i type="logical" name="LMP2LT"> F  </i>
   <i type="logical" name="LSMP2LT"> F  </i>
   <i type="logical" name="LGWLF"> F  </i>
   <i name="ENCUTGW">     -2.00000000</i>
   <i name="ENCUTGWSOFT">     -2.00000000</i>
   <i name="ENCUTLF">     -1.00000000</i>
   <i type="logical" name="LESF_SPLINES"> F  </i>
   <i type="int" name="LMAXMP2">    -1</i>
   <i name="SCISSOR">      0.00000000</i>
   <i type="int" name="NOMEGA">     0</i>
   <i type="int" name="NOMEGAR">     0</i>
   <i type="int" name="NBANDSGW">    -1</i>
   <i type="int" name="NBANDSO">    -1</i>
   <i type="int" name="NBANDSV">    -1</i>
   <i type="int" name="NELM">     1</i>
   <i type="int" name="NELMHF">     1</i>
   <i type="int" name="DIM">     3</i>
   <i type="int" name="IESPILON">     4</i>
   <i type="int" name="ANTIRES">     0</i>
   <i name="OMEGAMAX">    -30.00000000</i>
   <i name="OMEGAMIN">    -30.00000000</i>
   <i name="OMEGATL">   -200.00000000</i>
   <i type="int" name="OMEGAGRID">     0</i>
   <i name="CSHIFT">     -0.10000000</i>
   <i type="logical" name="LSELFENERGY"> F  </i>
   <i type="logical" name="LSPECTRAL"> F  </i>
   <i type="logical" name="LSPECTRALGW"> F  </i>
   <i type="logical" name="LSINGLES"> F  </i>
   <i type="logical" name="LFERMIGW"> F  </i>
   <i type="logical" name="ODDONLYGW"> F  </i>
   <i type="logical" name="EVENONLYGW"> F  </i>
   <i type="int" name="NKREDLFX">     1</i>
   <i type="int" name="NKREDLFY">     1</i>
   <i type="int" name="NKREDLFZ">     1</i>
   <i type="int" name="MAXMEM">  2800</i>
   <i type="int" name="TELESCOPE">     0</i>
   <i type="int" name="NTAUPAR">    -1</i>
   <i type="int" name="NOMEGAPAR">    -1</i>
   <i name="DAMP_NEWTON">      0.80000001</i>
   <i name="LAMBDA">      1.00000000</i>
  </separator>
  <separator name="External order field" >
   <i name="OFIELD_KAPPA">      0.00000000</i>
   <v name="OFIELD_K">      0.00000000      0.00000000      0.00000000</v>
   <i name="OFIELD_Q6_NEAR">      0.00000000</i>
   <i name="OFIELD_Q6_FAR">      0.00000000</i>
   <i name="OFIELD_A">      0.00000000</i>
  </separator>
 </parameters>
 <atominfo>
  <atoms>       6 </atoms>
  <types>       2 </types>
  <array name="atoms" >
   <dimension dim="1">ion</dimension>
   <field type="string">element</field>
   <field type="int">atomtype</field>
   <set>
    <rc><c>Ti</c><c>   1</c></rc>
    <rc><c>Ti</c><c>   1</c></rc>
    <rc><c>O </c><c>   2</c></rc>
    <rc><c>O </c><c>   2</c></rc>
    <rc><c>O </c><c>   2</c></rc>
    <rc><c>O </c><c>   2</c></rc>
   </set>
  </array>
  <array name="atomtypes" >
   <dimension dim="1">type</dimension>
   <field type="int">atomspertype</field>
   <field type="string">element</field>
   <field>mass</field>
   <field>valence</field>
   <field type="string">pseudopotential</field>
   <set>
    <rc><c>   2</c><c>Ti</c><c>     47.88000000</c><c>     12.00000000</c><c>  PAW_PBE Ti_sv 26Sep2005               </c></rc>
    <rc><c>   4</c><c>O </c><c>     16.00000000</c><c>      6.00000000</c><c> PAW_PBE O_s 07Sep2000                  </c></rc>
   </set>
  </array>
 </atominfo>
 <structure name="initialpos" >
  <crystal>
   <varray name="basis" >
    <v>       4.58400000       0.00000000       0.00000000 </v>
    <v>       0.00000000       4.58400000       0.00000000 </v>
    <v>       0.00000000       0.00000000       2.95300000 </v>
   </varray>
   <i name="volume">     62.05155437 </i>
   <varray name="rec_basis" >
    <v>       0.21815009       0.00000000       0.00000000 </v>
    <v>       0.00000000       0.21815009       0.00000000 </v>
    <v>       0.00000000       0.00000000       0.33863867 </v>
   </varray>
  </crystal>
  <varray name="positions" >
   <v>       0.00000000       0.00000000       0.00000000 </v>
   <v>       0.50000000       0.50000000       0.50000000 </v>
   <v>       0.19623686       0.80376314       0.50000000 </v>
   <v>       0.80376314       0.19623686       0.50000000 </v>
   <v>       0.30376314       0.30376314       0.00000000 </v>
   <v>       0.69623686       0.69623686       0.00000000 </v>
  </varray>
 </structure>
 <calculation>
  <scstep>
   <time name="dav">    0.47    0.47</time>
   <time name="total">    0.49    0.49</time>
   <energy>
    <i name="alphaZ">    184.33841299 </i>
    <i name="ewald">  -3605.37491913 </i>
    <i name="hartreedc">   -104.66876467 </i>
    <i name="XCdc">    173.96127755 </i>
    <i name="pawpsdc">  59929.92072740 </i>
    <i name="pawaedc"> -59936.68491142 </i>
    <i name="eentropy">     -0.00014421 </i>
    <i name="bandstr">  -1997.99007582 </i>
    <i name="atom">   4905.65827411 </i>
    <i name="e_fr_energy">   -450.84012319 </i>
    <i name="e_wo_entrp">   -450.83997898 </i>
    <i name="e_0_energy">   -450.84005109 </i>
   </energy>
  </scstep>
  <scstep>
   <time name="dav">    0.43    0.43</time>
   <time name="total">    0.43    0.43</time>
   <energy>
    <i name="e_fr_energy">   -987.89072174 </i>
    <i name="e_wo_entrp">   -987.89052715 </i>
    <i name="e_0_energy">   -987.89062445 </i>
   </energy>
  </scstep>
  <scstep>
   <time name="dav">    0.72    0.72</time>
   <time name="total">    0.72    0.72</time>
   <energy>
    <i name="e_fr_energy">  -1101.08136270 </i>
    <i name="e_wo_entrp">  -1101.08126369 </i>
    <i name="e_0_energy">  -1101.08131319 </i>
   </energy>
  </scstep>
  <scstep>
   <time name="dav">    0.58    0.58</time>
   <time name="total">    0.58    0.58</time>
   <energy>
    <i name="e_fr_energy">  -1112.62232502 </i>
    <i name="e_wo_entrp">  -1112.62223207 </i>
    <i name="e_0_energy">  -1112.62227855 </i>
   </energy>
  </scstep>
  <scstep>
   <time name="dav">    0.61    0.61</time>
   <time name="total">    0.64    0.64</time>
   <energy>
    <i name="e_fr_energy">  -1113.66095068 </i>
    <i name="e_wo_entrp">  -1113.66080595 </i>
    <i name="e_0_energy">  -1113.66087832 </i>
   </energy>
  </scstep>
  <scstep>
   <time name="dav">    0.61    0.61</time>
   <time name="total">    0.65    0.65</time>
   <energy>
    <i name="e_fr_energy">   -528.27819918 </i>
    <i name="e_wo_entrp">   -528.27800057 </i>
    <i name="e_0_energy">   -528.27809988 </i>
   </energy>
  </scstep>
  <scstep>
   <time name="dav">    0.53    0.53</time>
   <time name="total">    0.57    0.57</time>
   <energy>
    <i name="e_fr_energy">   -199.17996734 </i>
    <i name="e_wo_entrp">   -199.17988412 </i>
    <i name="e_0_energy">   -199.17992573 </i>
   </energy>
  </scstep>
  <scstep>
   <time name="dav">    0.47    0.47</time>
   <time name="total">    0.50    0.50</time>
   <energy>
    <i name="e_fr_energy">   -211.43903294 </i>
    <i name="e_wo_entrp">   -211.43903294 </i>
    <i name="e_0_energy">   -211.43903294 </i>
   </energy>
  </scstep>
  <scstep>
   <time name="dav">    0.56    0.56</time>
   <time name="total">    0.60    0.60</time>
   <energy>
    <i name="e_fr_energy">    -66.08151391 </i>
    <i name="e_wo_entrp">    -66.08110916 </i>
    <i name="e_0_energy">    -66.08131154 </i>
   </energy>
  </scstep>
  <scstep>
   <time name="dav">    0.49    0.49</time>
   <time name="total">    0.53    0.53</time>
   <energy>
    <i name="e_fr_energy">    -99.44777984 </i>
    <i name="e_wo_entrp">    -99.44754650 </i>
    <i name="e_0_energy">    -99.44766317 </i>
   </energy>
  </scstep>
  <scstep>
   <time name="dav">    0.50    0.50</time>
   <time name="total">    0.54    0.54</time>
   <energy>
    <i name="e_fr_energy">    -74.94725863 </i>
    <i name="e_wo_entrp">    -74.94718531 </i>
    <i name="e_0_energy">    -74.94722197 </i>
   </energy>
  </scstep>
  <scstep>
   <time name="dav">    0.58    0.58</time>
   <time name="total">    0.62    0.62</time>
   <energy>
    <i name="e_fr_energy">    -73.39867858 </i>
    <i name="e_wo_entrp">    -73.39840619 </i>
    <i name="e_0_energy">    -73.39854238 </i>
   </energy>
  </scstep>
  <scstep>
   <time name="dav">    0.50    0.50</time>
   <time name="total">    0.54    0.54</time>
   <energy>
    <i name="e_fr_energy">    -59.11043808 </i>
    <i name="e_wo_entrp">    -59.11043808 </i>
    <i name="e_0_energy">    -59.11043808 </i>
   </energy>
  </scstep>
  <scstep>
   <time name="dav">    0.53    0.53</time>
   <time name="total">    0.57    0.57</time>
   <energy>
    <i name="e_fr_energy">    -55.29537595 </i>
    <i name="e_wo_entrp">    -55.29537595 </i>
    <i name="e_0_energy">    -55.29537595 </i>
   </energy>
  </scstep>
  <scstep>
   <time name="dav">    0.50    0.50</time>
   <time name="total">    0.53    0.53</time>
   <energy>
    <i name="e_fr_energy">    -56.03042375 </i>
    <i name="e_wo_entrp">    -56.03042375 </i>
    <i name="e_0_energy">    -56.03042375 </i>
   </energy>
  </scstep>
  <scstep>
   <time name="dav">    0.54    0.54</time>
   <time name="total">    0.57    0.57</time>
   <energy>
    <i name="e_fr_energy">    -56.22712052 </i>
    <i name="e_wo_entrp">    -56.22712052 </i>
    <i name="e_0_energy">    -56.22712052 </i>
   </energy>
  </scstep>
  <scstep>
   <time name="dav">    0.47    0.47</time>
   <time name="total">    0.51    0.51</time>
   <energy>
    <i name="e_fr_energy">    -54.37911305 </i>
    <i name="e_wo_entrp">    -54.37911305 </i>
    <i name="e_0_energy">    -54.37911305 </i>
   </energy>
  </scstep>
  <scstep>
   <time name="dav">    0.46    0.46</time>
   <time name="total">    0.50    0.50</time>
   <energy>
    <i name="e_fr_energy">    -52.39369444 </i>
    <i name="e_wo_entrp">    -52.39369444 </i>
    <i name="e_0_energy">    -52.39369444 </i>
   </energy>
  </scstep>
  <scstep>
   <time name="dav">    0.50    0.50</time>
   <time name="total">    0.53    0.54</time>
   <energy>
    <i name="e_fr_energy">    -49.79220296 </i>
    <i name="e_wo_entrp">    -49.79220296 </i>
    <i name="e_0_energy">    -49.79220296 </i>
   </energy>
  </scstep>
  <scstep>
   <time name="dav">    0.52    0.52</time>
   <time name="total">    0.56    0.56</time>
   <energy>
    <i name="e_fr_energy">    -49.14734951 </i>
    <i name="e_wo_entrp">    -49.14734951 </i>
    <i name="e_0_energy">    -49.14734951 </i>
   </energy>
  </scstep>
  <scstep>
   <time name="dav">    0.48    0.48</time>
   <time name="total">    0.52    0.52</time>
   <energy>
    <i name="e_fr_energy">    -48.78649705 </i>
    <i name="e_wo_entrp">    -48.78649705 </i>
    <i name="e_0_energy">    -48.78649705 </i>
   </energy>
  </scstep>
  <scstep>
   <time name="dav">    0.56    0.56</time>
   <time name="total">    0.60    0.60</time>
   <energy>
    <i name="e_fr_energy">    -48.50835527 </i>
    <i name="e_wo_entrp">    -48.50835527 </i>
    <i name="e_0_energy">    -48.50835527 </i>
   </energy>
  </scstep>
  <scstep>
   <time name="dav">    0.53    0.53</time>
   <time name="total">    0.57    0.57</time>
   <energy>
    <i name="e_fr_energy">    -48.41647586 </i>
    <i name="e_wo_entrp">    -48.41647586 </i>
    <i name="e_0_energy">    -48.41647586 </i>
   </energy>
  </scstep>
  <scstep>
   <time name="dav">    0.52    0.52</time>
   <time name="total">    0.56    0.56</time>
   <energy>
    <i name="e_fr_energy">    -48.40457889 </i>
    <i name="e_wo_entrp">    -48.40457889 </i>
    <i name="e_0_energy">    -48.40457889 </i>
   </energy>
  </scstep>
  <scstep>
   <time name="dav">    0.53    0.53</time>
   <time name="total">    0.56    0.56</time>
   <energy>
    <i name="e_fr_energy">    -48.40385432 </i>
    <i name="e_wo_entrp">    -48.40385432 </i>
    <i name="e_0_energy">    -48.40385432 </i>
   </energy>
  </scstep>
  <scstep>
   <time name="dav">    0.48    0.48</time>
   <time name="total">    0.52    0.52</time>
   <energy>
    <i name="e_fr_energy">    -48.40385886 </i>
    <i name="e_wo_entrp">    -48.40385886 </i>
    <i name="e_0_energy">    -48.40385886 </i>
   </energy>
  </scstep>
  <scstep>
   <time name="dav">    0.46    0.46</time>
   <time name="total">    0.47    0.47</time>
   <energy>
    <i name="alphaZ">    184.33841299 </i>
    <i name="ewald">  -3605.37491913 </i>
    <i name="hartreedc">  -1218.04000177 </i>
    <i name="XCdc">    236.15118916 </i>
    <i name="pawpsdc">   7135.50566495 </i>
    <i name="pawaedc">  -7105.89652748 </i>
    <i name="eentropy">     -0.00000000 </i>
    <i name="bandstr">   -580.74595119 </i>
    <i name="atom">   4905.65827411 </i>
    <i name="e_fr_energy">    -48.40385836 </i>
    <i name="e_wo_entrp">    -48.40385836 </i>
    <i name="e_0_energy">    -48.40385836 </i>
   </energy>
  </scstep>
  <structure>
   <crystal>
    <varray name="basis" >
     <v>       4.58400000       0.00000000       0.00000000 </v>
     <v>       0.00000000       4.58400000       0.00000000 </v>
     <v>       0.00000000       0.00000000       2.95300000 </v>
    </varray>
    <i name="volume">     62.05155437 </i>
    <varray name="rec_basis" >
     <v>       0.21815009       0.00000000       0.00000000 </v>
     <v>       0.00000000       0.21815009       0.00000000 </v>
     <v>       0.00000000       0.00000000       0.33863867 </v>
    </varray>
   </crystal>
   <varray name="positions" >
    <v>       0.00000000       0.00000000       0.00000000 </v>
    <v>       0.50000000       0.50000000       0.50000000 </v>
    <v>       0.19623686       0.80376314       0.50000000 </v>
    <v>       0.80376314       0.19623686       0.50000000 </v>
    <v>       0.30376314       0.30376314       0.00000000 </v>
    <v>       0.69623686       0.69623686       0.00000000 </v>
   </varray>
  </structure>
  <varray name="forces" >
   <v>      -0.00000000       0.00000000      -0.00000000 </v>
   <v>       0.00000000       0.00000000      -0.00000000 </v>
   <v>       0.06895522      -0.06895522      -0.00000000 </v>
   <v>      -0.06895522       0.06895522       0.00000000 </v>
   <v>      -0.06895522      -0.06895522      -0.00000000 </v>
   <v>       0.06895522       0.06895522       0.00000000 </v>
  </varray>
  <varray name="stress" >
   <v>     127.45226046       0.00000000       0.00000000 </v>
   <v>       0.00000000     127.45226046       0.00000000 </v>
   <v>       0.00000000       0.00000000     175.91421546 </v>
  </varray>
  <energy>
   <i name="e_fr_energy">    -48.40385836 </i>
   <i name="e_wo_entrp">    -48.40385836 </i>
   <i name="e_0_energy">    -48.40385836 </i>
  </energy>
  <time name="totalsc">   15.89   16.24</time>
  <eigenvalues>
   <array>
    <dimension dim="1">band</dimension>
    <dimension dim="2">kpoint</dimension>
    <dimension dim="3">spin</dimension>
    <field>eigene</field>
    <field>occ</field>
    <set>
     <set comment="spin 1">
      <set comment="kpoint 1">
       <r>  -52.3490    1.0000 </r>
       <r>  -52.3324    1.0000 </r>
       <r>  -28.6056    1.0000 </r>
       <r>  -28.6056    1.0000 </r>
       <r>  -28.4525    1.0000 </r>
       <r>  -28.4525    1.0000 </r>
       <r>  -28.4081    1.0000 </r>
       <r>  -28.3756    1.0000 </r>
       <r>  -12.7792    1.0000 </r>
       <r>  -11.5101    1.0000 </r>
       <r>  -10.8486    1.0000 </r>
       <r>  -10.8486    1.0000 </r>
       <r>   -0.3039    1.0000 </r>
       <r>    0.2489    1.0000 </r>
       <r>    0.6634    1.0000 </r>
       <r>    1.7463    1.0000 </r>
       <r>    1.7463    1.0000 </r>
       <r>    2.8712    1.0000 </r>
       <r>    2.8712    1.0000 </r>
       <r>    3.4375    1.0000 </r>
       <r>    4.7665    1.0000 </r>
       <r>    5.0523    1.0000 </r>
       <r>    5.0523    1.0000 </r>
       <r>    5.6013    1.0000 </r>
       <r>    7.9435    0.0000 </r>
       <r>    8.1367    0.0000 </r>
       <r>    8.5908    0.0000 </r>
       <r>    8.5908    0.0000 </r>
      </set>
      <set comment="kpoint 2">
       <r>  -52.3479    1.0000 </r>
       <r>  -52.3335    1.0000 </r>
       <r>  -28.5973    1.0000 </r>
       <r>  -28.5966    1.0000 </r>
       <r>  -28.4625    1.0000 </r>
       <r>  -28.4617    1.0000 </r>
       <r>  -28.4060    1.0000 </r>
       <r>  -28.3778    1.0000 </r>
       <r>  -12.6801    1.0000 </r>
       <r>  -11.5254    1.0000 </r>
       <r>  -10.9417    1.0000 </r>
       <r>  -10.8810    1.0000 </r>
       <r>   -0.1189    1.0000 </r>
       <r>    0.3518    1.0000 </r>
       <r>    0.8408    1.0000 </r>
       <r>    1.7539    1.0000 </r>
       <r>    1.7610    1.0000 </r>
       <r>    2.7138    1.0000 </r>
       <r>    2.8321    1.0000 </r>
       <r>    3.4679    1.0000 </r>
       <r>    4.5877    1.0000 </r>
       <r>    4.6041    1.0000 </r>
       <r>    4.8550    1.0000 </r>
       <r>    5.4871    1.0000 </r>
       <r>    8.0785    0.0000 </r>
       <r>    8.3401    0.0000 </r>
       <r>    8.7017    0.0000 </r>
       <r>    8.7432    0.0000 </r>
      </set>
      <set comment="kpoint 3">
       <r>  -52.3448    1.0000 </r>
       <r>  -52.3366    1.0000 </r>
       <r>  -28.5752    1.0000 </r>
       <r>  -28.5731    1.0000 </r>
       <r>  -28.4878    1.0000 </r>
       <r>  -28.4857    1.0000 </r>
       <r>  -28.4000    1.0000 </r>
       <r>  -28.3837    1.0000 </r>
       <r>  -12.4041    1.0000 </r>
       <r>  -11.6669    1.0000 </r>
       <r>  -11.0749    1.0000 </r>
       <r>  -10.9638    1.0000 </r>
       <r>    0.2887    1.0000 </r>
       <r>    0.5717    1.0000 </r>
       <r>    1.4150    1.0000 </r>
       <r>    1.7731    1.0000 </r>
       <r>    1.7856    1.0000 </r>
       <r>    2.4124    1.0000 </r>
       <r>    2.6345    1.0000 </r>
       <r>    3.5447    1.0000 </r>
       <r>    3.5923    1.0000 </r>
       <r>    4.2353    1.0000 </r>
       <r>    4.6574    1.0000 </r>
       <r>    5.1699    1.0000 </r>
       <r>    8.3505    0.0000 </r>
       <r>    8.5787    0.0000 </r>
       <r>    8.9578    0.0000 </r>
       <r>    9.0327    0.0000 </r>
      </set>
      <set comment="kpoint 4">
       <r>  -52.3407    1.0000 </r>
       <r>  -52.3407    1.0000 </r>
       <r>  -28.5553    1.0000 </r>
       <r>  -28.5553    1.0000 </r>
       <r>  -28.5066    1.0000 </r>
       <r>  -28.5066    1.0000 </r>
       <r>  -28.3918    1.0000 </r>
       <r>  -28.3918    1.0000 </r>
       <r>  -12.0195    1.0000 </r>
       <r>  -12.0195    1.0000 </r>
       <r>  -11.0553    1.0000 </r>
       <r>  -11.0553    1.0000 </r>
       <r>    0.6054    1.0000 </r>
       <r>    0.6054    1.0000 </r>
       <r>    1.7900    1.0000 </r>
       <r>    1.7900    1.0000 </r>
       <r>    2.3392    1.0000 </r>
       <r>    2.3392    1.0000 </r>
       <r>    2.4031    1.0000 </r>
       <r>    2.4031    1.0000 </r>
       <r>    3.8567    1.0000 </r>
       <r>    3.8567    1.0000 </r>
       <r>    4.8125    1.0000 </r>
       <r>    4.8125    1.0000 </r>
       <r>    8.5617    0.0000 </r>
       <r>    8.5617    0.0000 </r>
       <r>    9.1401    0.0000 </r>
       <r>    9.1401    0.0000 </r>
      </set>
      <set comment="kpoint 5">
       <r>  -52.3469    1.0000 </r>
       <r>  -52.3345    1.0000 </r>
       <r>  -28.6086    1.0000 </r>
       <r>  -28.5718    1.0000 </r>
       <r>  -28.4886    1.0000 </r>
       <r>  -28.4507    1.0000 </r>
       <r>  -28.4041    1.0000 </r>
       <r>  -28.3797    1.0000 </r>
       <r>  -12.5949    1.0000 </r>
       <r>  -11.5552    1.0000 </r>
       <r>  -11.0215    1.0000 </r>
       <r>  -10.8839    1.0000 </r>
       <r>   -0.0903    1.0000 </r>
       <r>    0.5327    1.0000 </r>
       <r>    0.9966    1.0000 </r>
       <r>    1.7281    1.0000 </r>
       <r>    1.7896    1.0000 </r>
       <r>    2.4885    1.0000 </r>
       <r>    2.9563    1.0000 </r>
       <r>    3.5098    1.0000 </r>
       <r>    4.2427    1.0000 </r>
       <r>    4.5068    1.0000 </r>
       <r>    4.7562    1.0000 </r>
       <r>    5.3890    1.0000 </r>
       <r>    7.9923    0.0000 </r>
       <r>    8.5217    0.0000 </r>
       <r>    8.5958    0.0000 </r>
       <r>    8.9073    0.0000 </r>
      </set>
      <set comment="kpoint 6">
       <r>  -52.3443    1.0000 </r>
       <r>  -52.3371    1.0000 </r>
       <r>  -28.6018    1.0000 </r>
       <r>  -28.5556    1.0000 </r>
       <r>  -28.5062    1.0000 </r>
       <r>  -28.4589    1.0000 </r>
       <r>  -28.3989    1.0000 </r>
       <r>  -28.3848    1.0000 </r>
       <r>  -12.3588    1.0000 </r>
       <r>  -11.7179    1.0000 </r>
       <r>  -11.0862    1.0000 </r>
       <r>  -10.9469    1.0000 </r>
       <r>    0.0945    1.0000 </r>
       <r>    0.6686    1.0000 </r>
       <r>    1.4964    1.0000 </r>
       <r>    1.7290    1.0000 </r>
       <r>    1.7904    1.0000 </r>
       <r>    2.3866    1.0000 </r>
       <r>    2.8697    1.0000 </r>
       <r>    3.6413    1.0000 </r>
       <r>    3.6591    1.0000 </r>
       <r>    4.2478    1.0000 </r>
       <r>    4.4751    1.0000 </r>
       <r>    5.0603    1.0000 </r>
       <r>    8.1490    0.0000 </r>
       <r>    8.5945    0.0000 </r>
       <r>    8.7271    0.0000 </r>
       <r>    9.1449    0.0000 </r>
      </set>
      <set comment="kpoint 7">
       <r>  -52.3407    1.0000 </r>
       <r>  -52.3407    1.0000 </r>
       <r>  -28.5790    1.0000 </r>
       <r>  -28.5790    1.0000 </r>
       <r>  -28.4831    1.0000 </r>
       <r>  -28.4831    1.0000 </r>
       <r>  -28.3918    1.0000 </r>
       <r>  -28.3918    1.0000 </r>
       <r>  -12.0308    1.0000 </r>
       <r>  -12.0308    1.0000 </r>
       <r>  -11.0375    1.0000 </r>
       <r>  -11.0375    1.0000 </r>
       <r>    0.4230    1.0000 </r>
       <r>    0.4230    1.0000 </r>
       <r>    1.7590    1.0000 </r>
       <r>    1.7590    1.0000 </r>
       <r>    2.1795    1.0000 </r>
       <r>    2.1795    1.0000 </r>
       <r>    2.9658    1.0000 </r>
       <r>    2.9658    1.0000 </r>
       <r>    3.9266    1.0000 </r>
       <r>    3.9266    1.0000 </r>
       <r>    4.6331    1.0000 </r>
       <r>    4.6331    1.0000 </r>
       <r>    8.4330    0.0000 </r>
       <r>    8.4330    0.0000 </r>
       <r>    8.9982    0.0000 </r>
       <r>    8.9982    0.0000 </r>
      </set>
      <set comment="kpoint 8">
       <r>  -52.3427    1.0000 </r>
       <r>  -52.3386    1.0000 </r>
       <r>  -28.6144    1.0000 </r>
       <r>  -28.5814    1.0000 </r>
       <r>  -28.4812    1.0000 </r>
       <r>  -28.4470    1.0000 </r>
       <r>  -28.3959    1.0000 </r>
       <r>  -28.3877    1.0000 </r>
       <r>  -12.2326    1.0000 </r>
       <r>  -11.8620    1.0000 </r>
       <r>  -11.0634    1.0000 </r>
       <r>  -10.9525    1.0000 </r>
       <r>   -0.0178    1.0000 </r>
       <r>    0.4439    1.0000 </r>
       <r>    1.6920    1.0000 </r>
       <r>    1.7490    1.0000 </r>
       <r>    1.8490    1.0000 </r>
       <r>    2.5961    1.0000 </r>
       <r>    3.2162    1.0000 </r>
       <r>    3.6980    1.0000 </r>
       <r>    3.8427    1.0000 </r>
       <r>    4.0834    1.0000 </r>
       <r>    4.2173    1.0000 </r>
       <r>    4.8242    1.0000 </r>
       <r>    7.9623    0.0000 </r>
       <r>    8.4291    0.0000 </r>
       <r>    8.6067    0.0000 </r>
       <r>    9.0025    0.0000 </r>
      </set>
      <set comment="kpoint 9">
       <r>  -52.3406    1.0000 </r>
       <r>  -52.3406    1.0000 </r>
       <r>  -28.6068    1.0000 </r>
       <r>  -28.6068    1.0000 </r>
       <r>  -28.4556    1.0000 </r>
       <r>  -28.4556    1.0000 </r>
       <r>  -28.3918    1.0000 </r>
       <r>  -28.3918    1.0000 </r>
       <r>  -12.0526    1.0000 </r>
       <r>  -12.0526    1.0000 </r>
       <r>  -11.0028    1.0000 </r>
       <r>  -11.0028    1.0000 </r>
       <r>    0.1192    1.0000 </r>
       <r>    0.1192    1.0000 </r>
       <r>    1.7012    1.0000 </r>
       <r>    1.7012    1.0000 </r>
       <r>    2.3843    1.0000 </r>
       <r>    2.3843    1.0000 </r>
       <r>    3.4892    1.0000 </r>
       <r>    3.4892    1.0000 </r>
       <r>    4.0665    1.0000 </r>
       <r>    4.0665    1.0000 </r>
       <r>    4.3448    1.0000 </r>
       <r>    4.3448    1.0000 </r>
       <r>    8.1235    0.0000 </r>
       <r>    8.1235    0.0000 </r>
       <r>    8.7363    0.0000 </r>
       <r>    8.7363    0.0000 </r>
      </set>
      <set comment="kpoint 10">
       <r>  -52.3406    1.0000 </r>
       <r>  -52.3406    1.0000 </r>
       <r>  -28.6174    1.0000 </r>
       <r>  -28.6174    1.0000 </r>
       <r>  -28.4451    1.0000 </r>
       <r>  -28.4451    1.0000 </r>
       <r>  -28.3917    1.0000 </r>
       <r>  -28.3917    1.0000 </r>
       <r>  -12.0630    1.0000 </r>
       <r>  -12.0630    1.0000 </r>
       <r>  -10.9858    1.0000 </r>
       <r>  -10.9858    1.0000 </r>
       <r>   -0.0109    1.0000 </r>
       <r>   -0.0109    1.0000 </r>
       <r>    1.6741    1.0000 </r>
       <r>    1.6741    1.0000 </r>
       <r>    2.5984    1.0000 </r>
       <r>    2.5984    1.0000 </r>
       <r>    3.4751    1.0000 </r>
       <r>    3.4751    1.0000 </r>
       <r>    4.1372    1.0000 </r>
       <r>    4.1372    1.0000 </r>
       <r>    4.3779    1.0000 </r>
       <r>    4.3779    1.0000 </r>
       <r>    7.9345    0.0000 </r>
       <r>    7.9345    0.0000 </r>
       <r>    8.6126    0.0000 </r>
       <r>    8.6126    0.0000 </r>
      </set>
      <set comment="kpoint 11">
       <r>  -52.3382    1.0000 </r>
       <r>  -52.3238    1.0000 </r>
       <r>  -28.5781    1.0000 </r>
       <r>  -28.5781    1.0000 </r>
       <r>  -28.5149    1.0000 </r>
       <r>  -28.4880    1.0000 </r>
       <r>  -28.4480    1.0000 </r>
       <r>  -28.4480    1.0000 </r>
       <r>  -12.5023    1.0000 </r>
       <r>  -11.3704    1.0000 </r>
       <r>  -10.9624    1.0000 </r>
       <r>  -10.9624    1.0000 </r>
       <r>    0.0665    1.0000 </r>
       <r>    0.5100    1.0000 </r>
       <r>    0.9791    1.0000 </r>
       <r>    1.4781    1.0000 </r>
       <r>    1.4781    1.0000 </r>
       <r>    2.7029    1.0000 </r>
       <r>    3.3786    1.0000 </r>
       <r>    3.3786    1.0000 </r>
       <r>    3.8039    1.0000 </r>
       <r>    4.5699    1.0000 </r>
       <r>    4.5699    1.0000 </r>
       <r>    5.4043    1.0000 </r>
       <r>    8.3671    0.0000 </r>
       <r>    8.5009    0.0000 </r>
       <r>    8.8484    0.0000 </r>
       <r>    8.8484    0.0000 </r>
      </set>
      <set comment="kpoint 12">
       <r>  -52.3371    1.0000 </r>
       <r>  -52.3247    1.0000 </r>
       <r>  -28.5737    1.0000 </r>
       <r>  -28.5702    1.0000 </r>
       <r>  -28.5114    1.0000 </r>
       <r>  -28.4959    1.0000 </r>
       <r>  -28.4547    1.0000 </r>
       <r>  -28.4504    1.0000 </r>
       <r>  -12.4144    1.0000 </r>
       <r>  -11.3718    1.0000 </r>
       <r>  -11.0528    1.0000 </r>
       <r>  -10.9878    1.0000 </r>
       <r>    0.2195    1.0000 </r>
       <r>    0.6229    1.0000 </r>
       <r>    1.0299    1.0000 </r>
       <r>    1.4557    1.0000 </r>
       <r>    1.6623    1.0000 </r>
       <r>    2.6114    1.0000 </r>
       <r>    3.1399    1.0000 </r>
       <r>    3.3781    1.0000 </r>
       <r>    3.5604    1.0000 </r>
       <r>    4.5012    1.0000 </r>
       <r>    4.5180    1.0000 </r>
       <r>    5.3062    1.0000 </r>
       <r>    8.3993    0.0000 </r>
       <r>    8.5798    0.0000 </r>
       <r>    8.6143    0.0000 </r>
       <r>    8.8576    0.0000 </r>
      </set>
      <set comment="kpoint 13">
       <r>  -52.3345    1.0000 </r>
       <r>  -52.3273    1.0000 </r>
       <r>  -28.5606    1.0000 </r>
       <r>  -28.5492    1.0000 </r>
       <r>  -28.5156    1.0000 </r>
       <r>  -28.5070    1.0000 </r>
       <r>  -28.4687    1.0000 </r>
       <r>  -28.4580    1.0000 </r>
       <r>  -12.1693    1.0000 </r>
       <r>  -11.4901    1.0000 </r>
       <r>  -11.1716    1.0000 </r>
       <r>  -11.0537    1.0000 </r>
       <r>    0.5856    1.0000 </r>
       <r>    0.8762    1.0000 </r>
       <r>    1.2116    1.0000 </r>
       <r>    1.4087    1.0000 </r>
       <r>    2.0405    1.0000 </r>
       <r>    2.5835    1.0000 </r>
       <r>    2.6488    1.0000 </r>
       <r>    3.0768    1.0000 </r>
       <r>    3.1649    1.0000 </r>
       <r>    4.0980    1.0000 </r>
       <r>    4.6038    1.0000 </r>
       <r>    5.0929    1.0000 </r>
       <r>    8.5894    0.0000 </r>
       <r>    8.8405    0.0000 </r>
       <r>    8.8773    0.0000 </r>
       <r>    8.9868    0.0000 </r>
      </set>
      <set comment="kpoint 14">
       <r>  -52.3309    1.0000 </r>
       <r>  -52.3309    1.0000 </r>
       <r>  -28.5402    1.0000 </r>
       <r>  -28.5402    1.0000 </r>
       <r>  -28.5217    1.0000 </r>
       <r>  -28.5217    1.0000 </r>
       <r>  -28.4683    1.0000 </r>
       <r>  -28.4683    1.0000 </r>
       <r>  -11.8239    1.0000 </r>
       <r>  -11.8239    1.0000 </r>
       <r>  -11.1326    1.0000 </r>
       <r>  -11.1326    1.0000 </r>
       <r>    0.9063    1.0000 </r>
       <r>    0.9063    1.0000 </r>
       <r>    1.4028    1.0000 </r>
       <r>    1.4028    1.0000 </r>
       <r>    2.2478    1.0000 </r>
       <r>    2.2478    1.0000 </r>
       <r>    2.7374    1.0000 </r>
       <r>    2.7374    1.0000 </r>
       <r>    3.3946    1.0000 </r>
       <r>    3.3946    1.0000 </r>
       <r>    4.8597    1.0000 </r>
       <r>    4.8597    1.0000 </r>
       <r>    8.7810    0.0000 </r>
       <r>    8.7810    0.0000 </r>
       <r>    9.1230    0.0000 </r>
       <r>    9.1230    0.0000 </r>
      </set>
      <set comment="kpoint 15">
       <r>  -52.3363    1.0000 </r>
       <r>  -52.3255    1.0000 </r>
       <r>  -28.5807    1.0000 </r>
       <r>  -28.5536    1.0000 </r>
       <r>  -28.5131    1.0000 </r>
       <r>  -28.5010    1.0000 </r>
       <r>  -28.4627    1.0000 </r>
       <r>  -28.4463    1.0000 </r>
       <r>  -12.3379    1.0000 </r>
       <r>  -11.3884    1.0000 </r>
       <r>  -11.1248    1.0000 </r>
       <r>  -10.9947    1.0000 </r>
       <r>    0.2198    1.0000 </r>
       <r>    0.8198    1.0000 </r>
       <r>    1.0323    1.0000 </r>
       <r>    1.5151    1.0000 </r>
       <r>    1.7489    1.0000 </r>
       <r>    2.4843    1.0000 </r>
       <r>    3.1191    1.0000 </r>
       <r>    3.3366    1.0000 </r>
       <r>    3.4109    1.0000 </r>
       <r>    4.4497    1.0000 </r>
       <r>    4.5069    1.0000 </r>
       <r>    5.1895    1.0000 </r>
       <r>    8.4074    0.0000 </r>
       <r>    8.4114    0.0000 </r>
       <r>    8.8230    0.0000 </r>
       <r>    9.0734    0.0000 </r>
      </set>
      <set comment="kpoint 16">
       <r>  -52.3340    1.0000 </r>
       <r>  -52.3278    1.0000 </r>
       <r>  -28.5764    1.0000 </r>
       <r>  -28.5355    1.0000 </r>
       <r>  -28.5299    1.0000 </r>
       <r>  -28.4990    1.0000 </r>
       <r>  -28.4691    1.0000 </r>
       <r>  -28.4499    1.0000 </r>
       <r>  -12.1259    1.0000 </r>
       <r>  -11.5377    1.0000 </r>
       <r>  -11.1731    1.0000 </r>
       <r>  -11.0469    1.0000 </r>
       <r>    0.3807    1.0000 </r>
       <r>    0.9823    1.0000 </r>
       <r>    1.1163    1.0000 </r>
       <r>    1.4093    1.0000 </r>
       <r>    2.1342    1.0000 </r>
       <r>    2.5062    1.0000 </r>
       <r>    2.9002    1.0000 </r>
       <r>    3.0549    1.0000 </r>
       <r>    3.4338    1.0000 </r>
       <r>    4.1251    1.0000 </r>
       <r>    4.4613    1.0000 </r>
       <r>    4.9313    1.0000 </r>
       <r>    8.5237    0.0000 </r>
       <r>    8.6062    0.0000 </r>
       <r>    8.8714    0.0000 </r>
       <r>    9.1876    0.0000 </r>
      </set>
      <set comment="kpoint 17">
       <r>  -52.3309    1.0000 </r>
       <r>  -52.3309    1.0000 </r>
       <r>  -28.5595    1.0000 </r>
       <r>  -28.5595    1.0000 </r>
       <r>  -28.5098    1.0000 </r>
       <r>  -28.5098    1.0000 </r>
       <r>  -28.4613    1.0000 </r>
       <r>  -28.4613    1.0000 </r>
       <r>  -11.8298    1.0000 </r>
       <r>  -11.8298    1.0000 </r>
       <r>  -11.1214    1.0000 </r>
       <r>  -11.1214    1.0000 </r>
       <r>    0.7129    1.0000 </r>
       <r>    0.7129    1.0000 </r>
       <r>    1.2728    1.0000 </r>
       <r>    1.2728    1.0000 </r>
       <r>    2.4736    1.0000 </r>
       <r>    2.4736    1.0000 </r>
       <r>    3.0155    1.0000 </r>
       <r>    3.0155    1.0000 </r>
       <r>    3.4650    1.0000 </r>
       <r>    3.4650    1.0000 </r>
       <r>    4.6720    1.0000 </r>
       <r>    4.6720    1.0000 </r>
       <r>    8.7252    0.0000 </r>
       <r>    8.7252    0.0000 </r>
       <r>    9.0006    0.0000 </r>
       <r>    9.0006    0.0000 </r>
      </set>
      <set comment="kpoint 18">
       <r>  -52.3326    1.0000 </r>
       <r>  -52.3291    1.0000 </r>
       <r>  -28.5860    1.0000 </r>
       <r>  -28.5611    1.0000 </r>
       <r>  -28.5141    1.0000 </r>
       <r>  -28.4964    1.0000 </r>
       <r>  -28.4606    1.0000 </r>
       <r>  -28.4432    1.0000 </r>
       <r>  -12.0067    1.0000 </r>
       <r>  -11.6691    1.0000 </r>
       <r>  -11.1484    1.0000 </r>
       <r>  -11.0578    1.0000 </r>
       <r>    0.2622    1.0000 </r>
       <r>    0.7362    1.0000 </r>
       <r>    1.0727    1.0000 </r>
       <r>    1.2661    1.0000 </r>
       <r>    2.5521    1.0000 </r>
       <r>    2.7676    1.0000 </r>
       <r>    3.1798    1.0000 </r>
       <r>    3.3190    1.0000 </r>
       <r>    3.5232    1.0000 </r>
       <r>    4.1087    1.0000 </r>
       <r>    4.1830    1.0000 </r>
       <r>    4.5425    1.0000 </r>
       <r>    8.3716    0.0000 </r>
       <r>    8.6330    0.0000 </r>
       <r>    8.7995    0.0000 </r>
       <r>    9.0646    0.0000 </r>
      </set>
      <set comment="kpoint 19">
       <r>  -52.3308    1.0000 </r>
       <r>  -52.3308    1.0000 </r>
       <r>  -28.5805    1.0000 </r>
       <r>  -28.5805    1.0000 </r>
       <r>  -28.5028    1.0000 </r>
       <r>  -28.5028    1.0000 </r>
       <r>  -28.4478    1.0000 </r>
       <r>  -28.4478    1.0000 </r>
       <r>  -11.8412    1.0000 </r>
       <r>  -11.8412    1.0000 </r>
       <r>  -11.0994    1.0000 </r>
       <r>  -11.0994    1.0000 </r>
       <r>    0.3985    1.0000 </r>
       <r>    0.3985    1.0000 </r>
       <r>    1.1339    1.0000 </r>
       <r>    1.1339    1.0000 </r>
       <r>    2.9359    1.0000 </r>
       <r>    2.9359    1.0000 </r>
       <r>    3.3508    1.0000 </r>
       <r>    3.3508    1.0000 </r>
       <r>    3.7354    1.0000 </r>
       <r>    3.7354    1.0000 </r>
       <r>    4.2161    1.0000 </r>
       <r>    4.2161    1.0000 </r>
       <r>    8.5280    0.0000 </r>
       <r>    8.5280    0.0000 </r>
       <r>    8.8159    0.0000 </r>
       <r>    8.8159    0.0000 </r>
      </set>
      <set comment="kpoint 20">
       <r>  -52.3308    1.0000 </r>
       <r>  -52.3308    1.0000 </r>
       <r>  -28.5886    1.0000 </r>
       <r>  -28.5886    1.0000 </r>
       <r>  -28.5011    1.0000 </r>
       <r>  -28.5011    1.0000 </r>
       <r>  -28.4416    1.0000 </r>
       <r>  -28.4416    1.0000 </r>
       <r>  -11.8467    1.0000 </r>
       <r>  -11.8467    1.0000 </r>
       <r>  -11.0885    1.0000 </r>
       <r>  -11.0885    1.0000 </r>
       <r>    0.2670    1.0000 </r>
       <r>    0.2670    1.0000 </r>
       <r>    1.0848    1.0000 </r>
       <r>    1.0848    1.0000 </r>
       <r>    3.3419    1.0000 </r>
       <r>    3.3419    1.0000 </r>
       <r>    3.4875    1.0000 </r>
       <r>    3.4875    1.0000 </r>
       <r>    3.6518    1.0000 </r>
       <r>    3.6518    1.0000 </r>
       <r>    4.0355    1.0000 </r>
       <r>    4.0355    1.0000 </r>
       <r>    8.3896    0.0000 </r>
       <r>    8.3896    0.0000 </r>
       <r>    8.7525    0.0000 </r>
       <r>    8.7525    0.0000 </r>
      </set>
      <set comment="kpoint 21">
       <r>  -52.3154    1.0000 </r>
       <r>  -52.3071    1.0000 </r>
       <r>  -28.7221    1.0000 </r>
       <r>  -28.7080    1.0000 </r>
       <r>  -28.5172    1.0000 </r>
       <r>  -28.5172    1.0000 </r>
       <r>  -28.4441    1.0000 </r>
       <r>  -28.4441    1.0000 </r>
       <r>  -11.8603    1.0000 </r>
       <r>  -11.1894    1.0000 </r>
       <r>  -11.1894    1.0000 </r>
       <r>  -11.1631    1.0000 </r>
       <r>    0.8567    1.0000 </r>
       <r>    0.9886    1.0000 </r>
       <r>    1.4964    1.0000 </r>
       <r>    1.4964    1.0000 </r>
       <r>    1.6403    1.0000 </r>
       <r>    1.8802    1.0000 </r>
       <r>    2.3858    1.0000 </r>
       <r>    3.4729    1.0000 </r>
       <r>    3.4729    1.0000 </r>
       <r>    3.9472    1.0000 </r>
       <r>    3.9472    1.0000 </r>
       <r>    4.5655    1.0000 </r>
       <r>    8.4718    0.0000 </r>
       <r>    8.7631    0.0000 </r>
       <r>    9.2866    0.0000 </r>
       <r>    9.3940    0.0000 </r>
      </set>
      <set comment="kpoint 22">
       <r>  -52.3149    1.0000 </r>
       <r>  -52.3077    1.0000 </r>
       <r>  -28.7244    1.0000 </r>
       <r>  -28.7118    1.0000 </r>
       <r>  -28.5116    1.0000 </r>
       <r>  -28.5100    1.0000 </r>
       <r>  -28.4484    1.0000 </r>
       <r>  -28.4471    1.0000 </r>
       <r>  -11.8234    1.0000 </r>
       <r>  -11.2912    1.0000 </r>
       <r>  -11.1813    1.0000 </r>
       <r>  -11.1090    1.0000 </r>
       <r>    0.8844    1.0000 </r>
       <r>    1.0933    1.0000 </r>
       <r>    1.1679    1.0000 </r>
       <r>    1.4292    1.0000 </r>
       <r>    1.8313    1.0000 </r>
       <r>    2.0977    1.0000 </r>
       <r>    2.2823    1.0000 </r>
       <r>    3.3637    1.0000 </r>
       <r>    3.5009    1.0000 </r>
       <r>    3.9158    1.0000 </r>
       <r>    3.9979    1.0000 </r>
       <r>    4.6727    1.0000 </r>
       <r>    8.3209    0.0000 </r>
       <r>    8.8767    0.0000 </r>
       <r>    9.1818    0.0000 </r>
       <r>    9.3129    0.0000 </r>
      </set>
      <set comment="kpoint 23">
       <r>  -52.3133    1.0000 </r>
       <r>  -52.3091    1.0000 </r>
       <r>  -28.7277    1.0000 </r>
       <r>  -28.7201    1.0000 </r>
       <r>  -28.4972    1.0000 </r>
       <r>  -28.4928    1.0000 </r>
       <r>  -28.4602    1.0000 </r>
       <r>  -28.4563    1.0000 </r>
       <r>  -11.7230    1.0000 </r>
       <r>  -11.4334    1.0000 </r>
       <r>  -11.1571    1.0000 </r>
       <r>  -11.0969    1.0000 </r>
       <r>    0.9056    1.0000 </r>
       <r>    1.0683    1.0000 </r>
       <r>    1.1664    1.0000 </r>
       <r>    1.4335    1.0000 </r>
       <r>    1.6922    1.0000 </r>
       <r>    2.0887    1.0000 </r>
       <r>    2.6089    1.0000 </r>
       <r>    3.2102    1.0000 </r>
       <r>    3.3317    1.0000 </r>
       <r>    3.9183    1.0000 </r>
       <r>    4.2221    1.0000 </r>
       <r>    4.7602    1.0000 </r>
       <r>    8.1790    0.0000 </r>
       <r>    8.7315    0.0000 </r>
       <r>    9.1821    0.0000 </r>
       <r>    9.3766    0.0000 </r>
      </set>
      <set comment="kpoint 24">
       <r>  -52.3112    1.0000 </r>
       <r>  -52.3112    1.0000 </r>
       <r>  -28.7267    1.0000 </r>
       <r>  -28.7267    1.0000 </r>
       <r>  -28.4810    1.0000 </r>
       <r>  -28.4810    1.0000 </r>
       <r>  -28.4698    1.0000 </r>
       <r>  -28.4698    1.0000 </r>
       <r>  -11.5844    1.0000 </r>
       <r>  -11.5844    1.0000 </r>
       <r>  -11.1223    1.0000 </r>
       <r>  -11.1223    1.0000 </r>
       <r>    0.9813    1.0000 </r>
       <r>    0.9813    1.0000 </r>
       <r>    1.2461    1.0000 </r>
       <r>    1.2461    1.0000 </r>
       <r>    1.9684    1.0000 </r>
       <r>    1.9684    1.0000 </r>
       <r>    2.7657    1.0000 </r>
       <r>    2.7657    1.0000 </r>
       <r>    3.7267    1.0000 </r>
       <r>    3.7267    1.0000 </r>
       <r>    4.5501    1.0000 </r>
       <r>    4.5501    1.0000 </r>
       <r>    8.3504    0.0000 </r>
       <r>    8.3504    0.0000 </r>
       <r>    9.3739    0.0000 </r>
       <r>    9.3739    0.0000 </r>
      </set>
      <set comment="kpoint 25">
       <r>  -52.3144    1.0000 </r>
       <r>  -52.3081    1.0000 </r>
       <r>  -28.7258    1.0000 </r>
       <r>  -28.7131    1.0000 </r>
       <r>  -28.5189    1.0000 </r>
       <r>  -28.4936    1.0000 </r>
       <r>  -28.4592    1.0000 </r>
       <r>  -28.4433    1.0000 </r>
       <r>  -11.7871    1.0000 </r>
       <r>  -11.3093    1.0000 </r>
       <r>  -11.2164    1.0000 </r>
       <r>  -11.0931    1.0000 </r>
       <r>    0.8559    1.0000 </r>
       <r>    1.1331    1.0000 </r>
       <r>    1.1442    1.0000 </r>
       <r>    1.2408    1.0000 </r>
       <r>    1.8804    1.0000 </r>
       <r>    2.1715    1.0000 </r>
       <r>    2.4469    1.0000 </r>
       <r>    3.2373    1.0000 </r>
       <r>    3.4222    1.0000 </r>
       <r>    3.9644    1.0000 </r>
       <r>    4.0992    1.0000 </r>
       <r>    4.7489    1.0000 </r>
       <r>    8.2391    0.0000 </r>
       <r>    8.9169    0.0000 </r>
       <r>    9.2259    0.0000 </r>
       <r>    9.3287    0.0000 </r>
      </set>
      <set comment="kpoint 26">
       <r>  -52.3130    1.0000 </r>
       <r>  -52.3094    1.0000 </r>
       <r>  -28.7268    1.0000 </r>
       <r>  -28.7178    1.0000 </r>
       <r>  -28.5136    1.0000 </r>
       <r>  -28.4806    1.0000 </r>
       <r>  -28.4701    1.0000 </r>
       <r>  -28.4463    1.0000 </r>
       <r>  -11.6887    1.0000 </r>
       <r>  -11.4132    1.0000 </r>
       <r>  -11.2008    1.0000 </r>
       <r>  -11.1050    1.0000 </r>
       <r>    0.8332    1.0000 </r>
       <r>    0.9824    1.0000 </r>
       <r>    1.0519    1.0000 </r>
       <r>    1.4212    1.0000 </r>
       <r>    1.6313    1.0000 </r>
       <r>    2.2961    1.0000 </r>
       <r>    2.7491    1.0000 </r>
       <r>    3.1312    1.0000 </r>
       <r>    3.4391    1.0000 </r>
       <r>    3.9112    1.0000 </r>
       <r>    4.2966    1.0000 </r>
       <r>    4.7942    1.0000 </r>
       <r>    8.2013    0.0000 </r>
       <r>    8.8187    0.0000 </r>
       <r>    9.1137    0.0000 </r>
       <r>    9.3701    0.0000 </r>
      </set>
      <set comment="kpoint 27">
       <r>  -52.3112    1.0000 </r>
       <r>  -52.3112    1.0000 </r>
       <r>  -28.7238    1.0000 </r>
       <r>  -28.7238    1.0000 </r>
       <r>  -28.4979    1.0000 </r>
       <r>  -28.4979    1.0000 </r>
       <r>  -28.4562    1.0000 </r>
       <r>  -28.4562    1.0000 </r>
       <r>  -11.5540    1.0000 </r>
       <r>  -11.5540    1.0000 </r>
       <r>  -11.1503    1.0000 </r>
       <r>  -11.1503    1.0000 </r>
       <r>    0.8727    1.0000 </r>
       <r>    0.8727    1.0000 </r>
       <r>    1.1644    1.0000 </r>
       <r>    1.1644    1.0000 </r>
       <r>    1.9888    1.0000 </r>
       <r>    1.9888    1.0000 </r>
       <r>    2.9841    1.0000 </r>
       <r>    2.9841    1.0000 </r>
       <r>    3.7193    1.0000 </r>
       <r>    3.7193    1.0000 </r>
       <r>    4.5790    1.0000 </r>
       <r>    4.5790    1.0000 </r>
       <r>    8.4301    0.0000 </r>
       <r>    8.4301    0.0000 </r>
       <r>    9.2839    0.0000 </r>
       <r>    9.2839    0.0000 </r>
      </set>
      <set comment="kpoint 28">
       <r>  -52.3122    1.0000 </r>
       <r>  -52.3101    1.0000 </r>
       <r>  -28.7229    1.0000 </r>
       <r>  -28.7155    1.0000 </r>
       <r>  -28.5223    1.0000 </r>
       <r>  -28.4991    1.0000 </r>
       <r>  -28.4554    1.0000 </r>
       <r>  -28.4417    1.0000 </r>
       <r>  -11.5962    1.0000 </r>
       <r>  -11.3862    1.0000 </r>
       <r>  -11.2693    1.0000 </r>
       <r>  -11.1505    1.0000 </r>
       <r>    0.7643    1.0000 </r>
       <r>    0.8507    1.0000 </r>
       <r>    0.8580    1.0000 </r>
       <r>    1.1639    1.0000 </r>
       <r>    1.8640    1.0000 </r>
       <r>    2.3379    1.0000 </r>
       <r>    3.1008    1.0000 </r>
       <r>    3.1075    1.0000 </r>
       <r>    3.5834    1.0000 </r>
       <r>    4.0182    1.0000 </r>
       <r>    4.3541    1.0000 </r>
       <r>    4.7797    1.0000 </r>
       <r>    8.3501    0.0000 </r>
       <r>    8.9596    0.0000 </r>
       <r>    9.1177    0.0000 </r>
       <r>    9.1659    0.0000 </r>
      </set>
      <set comment="kpoint 29">
       <r>  -52.3112    1.0000 </r>
       <r>  -52.3112    1.0000 </r>
       <r>  -28.7177    1.0000 </r>
       <r>  -28.7177    1.0000 </r>
       <r>  -28.5164    1.0000 </r>
       <r>  -28.5164    1.0000 </r>
       <r>  -28.4448    1.0000 </r>
       <r>  -28.4448    1.0000 </r>
       <r>  -11.4742    1.0000 </r>
       <r>  -11.4742    1.0000 </r>
       <r>  -11.2255    1.0000 </r>
       <r>  -11.2255    1.0000 </r>
       <r>    0.7514    1.0000 </r>
       <r>    0.7514    1.0000 </r>
       <r>    0.9231    1.0000 </r>
       <r>    0.9231    1.0000 </r>
       <r>    2.1449    1.0000 </r>
       <r>    2.1449    1.0000 </r>
       <r>    3.1743    1.0000 </r>
       <r>    3.1743    1.0000 </r>
       <r>    3.8803    1.0000 </r>
       <r>    3.8803    1.0000 </r>
       <r>    4.5735    1.0000 </r>
       <r>    4.5735    1.0000 </r>
       <r>    8.6727    0.0000 </r>
       <r>    8.6727    0.0000 </r>
       <r>    9.1361    0.0000 </r>
       <r>    9.1361    0.0000 </r>
      </set>
      <set comment="kpoint 30">
       <r>  -52.3112    1.0000 </r>
       <r>  -52.3112    1.0000 </r>
       <r>  -28.7144    1.0000 </r>
       <r>  -28.7144    1.0000 </r>
       <r>  -28.5241    1.0000 </r>
       <r>  -28.5241    1.0000 </r>
       <r>  -28.4410    1.0000 </r>
       <r>  -28.4410    1.0000 </r>
       <r>  -11.4022    1.0000 </r>
       <r>  -11.4022    1.0000 </r>
       <r>  -11.2953    1.0000 </r>
       <r>  -11.2953    1.0000 </r>
       <r>    0.7522    1.0000 </r>
       <r>    0.7522    1.0000 </r>
       <r>    0.7646    1.0000 </r>
       <r>    0.7646    1.0000 </r>
       <r>    2.2285    1.0000 </r>
       <r>    2.2285    1.0000 </r>
       <r>    3.1927    1.0000 </r>
       <r>    3.1927    1.0000 </r>
       <r>    4.0605    1.0000 </r>
       <r>    4.0605    1.0000 </r>
       <r>    4.5177    1.0000 </r>
       <r>    4.5177    1.0000 </r>
       <r>    9.0659    0.0000 </r>
       <r>    9.0659    0.0000 </r>
       <r>    9.0719    0.0000 </r>
       <r>    9.0719    0.0000 </r>
      </set>
      <set comment="kpoint 31">
       <r>  -52.3014    1.0000 </r>
       <r>  -52.3014    1.0000 </r>
       <r>  -28.8192    1.0000 </r>
       <r>  -28.8192    1.0000 </r>
       <r>  -28.4724    1.0000 </r>
       <r>  -28.4724    1.0000 </r>
       <r>  -28.4562    1.0000 </r>
       <r>  -28.4562    1.0000 </r>
       <r>  -11.3024    1.0000 </r>
       <r>  -11.3024    1.0000 </r>
       <r>  -11.2944    1.0000 </r>
       <r>  -11.2944    1.0000 </r>
       <r>    0.9989    1.0000 </r>
       <r>    0.9989    1.0000 </r>
       <r>    1.7686    1.0000 </r>
       <r>    1.7686    1.0000 </r>
       <r>    1.8405    1.0000 </r>
       <r>    1.8405    1.0000 </r>
       <r>    2.7075    1.0000 </r>
       <r>    2.7075    1.0000 </r>
       <r>    3.1998    1.0000 </r>
       <r>    3.1998    1.0000 </r>
       <r>    4.1002    1.0000 </r>
       <r>    4.1002    1.0000 </r>
       <r>    9.0544    0.0000 </r>
       <r>    9.0544    0.0000 </r>
       <r>    9.3291    0.0000 </r>
       <r>    9.3291    0.0000 </r>
      </set>
      <set comment="kpoint 32">
       <r>  -52.3014    1.0000 </r>
       <r>  -52.3014    1.0000 </r>
       <r>  -28.8218    1.0000 </r>
       <r>  -28.8218    1.0000 </r>
       <r>  -28.4701    1.0000 </r>
       <r>  -28.4701    1.0000 </r>
       <r>  -28.4560    1.0000 </r>
       <r>  -28.4560    1.0000 </r>
       <r>  -11.4577    1.0000 </r>
       <r>  -11.4577    1.0000 </r>
       <r>  -11.1330    1.0000 </r>
       <r>  -11.1330    1.0000 </r>
       <r>    0.9152    1.0000 </r>
       <r>    0.9152    1.0000 </r>
       <r>    1.3911    1.0000 </r>
       <r>    1.3911    1.0000 </r>
       <r>    2.1734    1.0000 </r>
       <r>    2.1734    1.0000 </r>
       <r>    2.7436    1.0000 </r>
       <r>    2.7436    1.0000 </r>
       <r>    3.4934    1.0000 </r>
       <r>    3.4934    1.0000 </r>
       <r>    4.0076    1.0000 </r>
       <r>    4.0076    1.0000 </r>
       <r>    8.7730    0.0000 </r>
       <r>    8.7730    0.0000 </r>
       <r>    9.3407    0.0000 </r>
       <r>    9.3407    0.0000 </r>
      </set>
      <set comment="kpoint 33">
       <r>  -52.3013    1.0000 </r>
       <r>  -52.3013    1.0000 </r>
       <r>  -28.8269    1.0000 </r>
       <r>  -28.8269    1.0000 </r>
       <r>  -28.4658    1.0000 </r>
       <r>  -28.4658    1.0000 </r>
       <r>  -28.4554    1.0000 </r>
       <r>  -28.4554    1.0000 </r>
       <r>  -11.5709    1.0000 </r>
       <r>  -11.5709    1.0000 </r>
       <r>  -11.0075    1.0000 </r>
       <r>  -11.0075    1.0000 </r>
       <r>    0.6048    1.0000 </r>
       <r>    0.6048    1.0000 </r>
       <r>    1.4252    1.0000 </r>
       <r>    1.4252    1.0000 </r>
       <r>    2.1727    1.0000 </r>
       <r>    2.1727    1.0000 </r>
       <r>    2.9024    1.0000 </r>
       <r>    2.9024    1.0000 </r>
       <r>    3.7244    1.0000 </r>
       <r>    3.7244    1.0000 </r>
       <r>    4.1627    1.0000 </r>
       <r>    4.1627    1.0000 </r>
       <r>    8.2678    0.0000 </r>
       <r>    8.2678    0.0000 </r>
       <r>    9.3627    0.0000 </r>
       <r>    9.3627    0.0000 </r>
      </set>
      <set comment="kpoint 34">
       <r>  -52.3013    1.0000 </r>
       <r>  -52.3013    1.0000 </r>
       <r>  -28.8293    1.0000 </r>
       <r>  -28.8293    1.0000 </r>
       <r>  -28.4639    1.0000 </r>
       <r>  -28.4639    1.0000 </r>
       <r>  -28.4549    1.0000 </r>
       <r>  -28.4549    1.0000 </r>
       <r>  -11.6117    1.0000 </r>
       <r>  -11.6117    1.0000 </r>
       <r>  -10.9605    1.0000 </r>
       <r>  -10.9605    1.0000 </r>
       <r>    0.4608    1.0000 </r>
       <r>    0.4608    1.0000 </r>
       <r>    1.5189    1.0000 </r>
       <r>    1.5189    1.0000 </r>
       <r>    2.0976    1.0000 </r>
       <r>    2.0976    1.0000 </r>
       <r>    3.0351    1.0000 </r>
       <r>    3.0351    1.0000 </r>
       <r>    3.5709    1.0000 </r>
       <r>    3.5709    1.0000 </r>
       <r>    4.4807    1.0000 </r>
       <r>    4.4807    1.0000 </r>
       <r>    8.0007    0.0000 </r>
       <r>    8.0007    0.0000 </r>
       <r>    9.3727    0.0000 </r>
       <r>    9.3727    0.0000 </r>
      </set>
      <set comment="kpoint 35">
       <r>  -52.3014    1.0000 </r>
       <r>  -52.3014    1.0000 </r>
       <r>  -28.8260    1.0000 </r>
       <r>  -28.8200    1.0000 </r>
       <r>  -28.4729    1.0000 </r>
       <r>  -28.4652    1.0000 </r>
       <r>  -28.4566    1.0000 </r>
       <r>  -28.4556    1.0000 </r>
       <r>  -11.5731    1.0000 </r>
       <r>  -11.3270    1.0000 </r>
       <r>  -11.2638    1.0000 </r>
       <r>  -11.0083    1.0000 </r>
       <r>    0.6641    1.0000 </r>
       <r>    1.1503    1.0000 </r>
       <r>    1.2771    1.0000 </r>
       <r>    1.4028    1.0000 </r>
       <r>    1.5491    1.0000 </r>
       <r>    2.7071    1.0000 </r>
       <r>    2.7634    1.0000 </r>
       <r>    2.8663    1.0000 </r>
       <r>    3.4629    1.0000 </r>
       <r>    3.8207    1.0000 </r>
       <r>    3.8691    1.0000 </r>
       <r>    4.1299    1.0000 </r>
       <r>    8.4499    0.0000 </r>
       <r>    8.9531    0.0000 </r>
       <r>    9.3390    0.0000 </r>
       <r>    9.3596    0.0000 </r>
      </set>
      <set comment="kpoint 36">
       <r>  -52.3013    1.0000 </r>
       <r>  -52.3013    1.0000 </r>
       <r>  -28.8284    1.0000 </r>
       <r>  -28.8225    1.0000 </r>
       <r>  -28.4710    1.0000 </r>
       <r>  -28.4634    1.0000 </r>
       <r>  -28.4564    1.0000 </r>
       <r>  -28.4555    1.0000 </r>
       <r>  -11.6147    1.0000 </r>
       <r>  -11.4613    1.0000 </r>
       <r>  -11.1202    1.0000 </r>
       <r>  -10.9574    1.0000 </r>
       <r>    0.4717    1.0000 </r>
       <r>    0.7795    1.0000 </r>
       <r>    1.2901    1.0000 </r>
       <r>    1.4924    1.0000 </r>
       <r>    1.6100    1.0000 </r>
       <r>    2.5181    1.0000 </r>
       <r>    2.8068    1.0000 </r>
       <r>    2.9318    1.0000 </r>
       <r>    3.6614    1.0000 </r>
       <r>    4.0648    1.0000 </r>
       <r>    4.1712    1.0000 </r>
       <r>    4.3706    1.0000 </r>
       <r>    8.1446    0.0000 </r>
       <r>    8.5282    0.0000 </r>
       <r>    9.3608    0.0000 </r>
       <r>    9.3795    0.0000 </r>
      </set>
      <set comment="kpoint 37">
       <r>  -52.3014    1.0000 </r>
       <r>  -52.3014    1.0000 </r>
       <r>  -28.8267    1.0000 </r>
       <r>  -28.8267    1.0000 </r>
       <r>  -28.4663    1.0000 </r>
       <r>  -28.4663    1.0000 </r>
       <r>  -28.4558    1.0000 </r>
       <r>  -28.4558    1.0000 </r>
       <r>  -11.5737    1.0000 </r>
       <r>  -11.5737    1.0000 </r>
       <r>  -10.9985    1.0000 </r>
       <r>  -10.9985    1.0000 </r>
       <r>    0.4859    1.0000 </r>
       <r>    0.4859    1.0000 </r>
       <r>    1.3894    1.0000 </r>
       <r>    1.3894    1.0000 </r>
       <r>    2.0729    1.0000 </r>
       <r>    2.0729    1.0000 </r>
       <r>    2.8673    1.0000 </r>
       <r>    2.8673    1.0000 </r>
       <r>    3.8643    1.0000 </r>
       <r>    3.8643    1.0000 </r>
       <r>    4.5575    1.0000 </r>
       <r>    4.5575    1.0000 </r>
       <r>    8.1181    0.0000 </r>
       <r>    8.1181    0.0000 </r>
       <r>    9.3805    0.0000 </r>
       <r>    9.3805    0.0000 </r>
      </set>
      <set comment="kpoint 38">
       <r>  -52.3013    1.0000 </r>
       <r>  -52.3013    1.0000 </r>
       <r>  -28.8257    1.0000 </r>
       <r>  -28.8196    1.0000 </r>
       <r>  -28.4739    1.0000 </r>
       <r>  -28.4662    1.0000 </r>
       <r>  -28.4573    1.0000 </r>
       <r>  -28.4563    1.0000 </r>
       <r>  -11.5783    1.0000 </r>
       <r>  -11.3754    1.0000 </r>
       <r>  -11.2027    1.0000 </r>
       <r>  -10.9903    1.0000 </r>
       <r>    0.4365    1.0000 </r>
       <r>    0.9399    1.0000 </r>
       <r>    0.9745    1.0000 </r>
       <r>    1.1813    1.0000 </r>
       <r>    1.7272    1.0000 </r>
       <r>    2.4260    1.0000 </r>
       <r>    2.7264    1.0000 </r>
       <r>    2.7865    1.0000 </r>
       <r>    4.0104    1.0000 </r>
       <r>    4.2243    1.0000 </r>
       <r>    4.4571    1.0000 </r>
       <r>    4.6766    1.0000 </r>
       <r>    8.1731    0.0000 </r>
       <r>    8.7627    0.0000 </r>
       <r>    9.2537    0.0000 </r>
       <r>    9.3786    0.0000 </r>
      </set>
      <set comment="kpoint 39">
       <r>  -52.3013    1.0000 </r>
       <r>  -52.3013    1.0000 </r>
       <r>  -28.8212    1.0000 </r>
       <r>  -28.8212    1.0000 </r>
       <r>  -28.4716    1.0000 </r>
       <r>  -28.4716    1.0000 </r>
       <r>  -28.4571    1.0000 </r>
       <r>  -28.4571    1.0000 </r>
       <r>  -11.4759    1.0000 </r>
       <r>  -11.4759    1.0000 </r>
       <r>  -11.0957    1.0000 </r>
       <r>  -11.0957    1.0000 </r>
       <r>    0.5818    1.0000 </r>
       <r>    0.5818    1.0000 </r>
       <r>    1.0880    1.0000 </r>
       <r>    1.0880    1.0000 </r>
       <r>    2.0186    1.0000 </r>
       <r>    2.0186    1.0000 </r>
       <r>    2.7619    1.0000 </r>
       <r>    2.7619    1.0000 </r>
       <r>    4.1931    1.0000 </r>
       <r>    4.1931    1.0000 </r>
       <r>    4.7479    1.0000 </r>
       <r>    4.7479    1.0000 </r>
       <r>    8.4212    0.0000 </r>
       <r>    8.4212    0.0000 </r>
       <r>    9.3951    0.0000 </r>
       <r>    9.3951    0.0000 </r>
      </set>
      <set comment="kpoint 40">
       <r>  -52.3013    1.0000 </r>
       <r>  -52.3013    1.0000 </r>
       <r>  -28.8185    1.0000 </r>
       <r>  -28.8185    1.0000 </r>
       <r>  -28.4745    1.0000 </r>
       <r>  -28.4745    1.0000 </r>
       <r>  -28.4577    1.0000 </r>
       <r>  -28.4577    1.0000 </r>
       <r>  -11.3992    1.0000 </r>
       <r>  -11.3992    1.0000 </r>
       <r>  -11.1722    1.0000 </r>
       <r>  -11.1722    1.0000 </r>
       <r>    0.7809    1.0000 </r>
       <r>    0.7809    1.0000 </r>
       <r>    0.7881    1.0000 </r>
       <r>    0.7881    1.0000 </r>
       <r>    1.9967    1.0000 </r>
       <r>    1.9967    1.0000 </r>
       <r>    2.7401    1.0000 </r>
       <r>    2.7401    1.0000 </r>
       <r>    4.3051    1.0000 </r>
       <r>    4.3051    1.0000 </r>
       <r>    4.8596    1.0000 </r>
       <r>    4.8596    1.0000 </r>
       <r>    8.6760    0.0000 </r>
       <r>    8.6760    0.0000 </r>
       <r>    9.2270    0.0000 </r>
       <r>    9.2814    0.0000 </r>
      </set>
     </set>
    </set>
   </array>
  </eigenvalues>
  <separator name="orbital magnetization" >
   <v name="MAGDIPOLOUT">      0.00000000      0.00000000      0.00000000</v>
  </separator>
  <dos>
   <i name="efermi">      5.74702721 </i>
   <total>
    <array>
     <dimension dim="1">gridpoints</dimension>
     <dimension dim="2">spin</dimension>
     <field>energy</field>
     <field>total</field>
     <field>integrated</field>
     <set>
      <set comment="spin 1">
       <r>   -55.4362     0.0000     0.0000 </r>
       <r>   -55.2098     0.0000     0.0000 </r>
       <r>   -54.9834     0.0000     0.0000 </r>
       <r>   -54.7570     0.0000     0.0000 </r>
       <r>   -54.5307     0.0000     0.0000 </r>
       <r>   -54.3043     0.0000     0.0000 </r>
       <r>   -54.0779     0.0000     0.0000 </r>
       <r>   -53.8515     0.0000     0.0000 </r>
       <r>   -53.6251     0.0000     0.0000 </r>
       <r>   -53.3987     0.0000     0.0000 </r>
       <r>   -53.1723     0.0000     0.0000 </r>
       <r>   -52.9459     0.0000     0.0000 </r>
       <r>   -52.7195     0.0000     0.0000 </r>
       <r>   -52.4931     0.0000     0.0000 </r>
       <r>   -52.2667    17.3001     4.0000 </r>
       <r>   -52.0403     0.0000     4.0000 </r>
       <r>   -51.8139     0.0000     4.0000 </r>
       <r>   -51.5875     0.0000     4.0000 </r>
       <r>   -51.3611     0.0000     4.0000 </r>
       <r>   -51.1347     0.0000     4.0000 </r>
       <r>   -50.9083     0.0000     4.0000 </r>
       <r>   -50.6819     0.0000     4.0000 </r>
       <r>   -50.4555     0.0000     4.0000 </r>
       <r>   -50.2291     0.0000     4.0000 </r>
       <r>   -50.0028     0.0000     4.0000 </r>
       <r>   -49.7764     0.0000     4.0000 </r>
       <r>   -49.5500     0.0000     4.0000 </r>
       <r>   -49.3236     0.0000     4.0000 </r>
       <r>   -49.0972     0.0000     4.0000 </r>
       <r>   -48.8708     0.0000     4.0000 </r>
       <r>   -48.6444     0.0000     4.0000 </r>
       <r>   -48.4180     0.0000     4.0000 </r>
       <r>   -48.1916     0.0000     4.0000 </r>
       <r>   -47.9652     0.0000     4.0000 </r>
       <r>   -47.7388     0.0000     4.0000 </r>
       <r>   -47.5124     0.0000     4.0000 </r>
       <r>   -47.2860     0.0000     4.0000 </r>
       <r>   -47.0596     0.0000     4.0000 </r>
       <r>   -46.8332     0.0000     4.0000 </r>
       <r>   -46.6068     0.0000     4.0000 </r>
       <r>   -46.3804     0.0000     4.0000 </r>
       <r>   -46.1540     0.0000     4.0000 </r>
       <r>   -45.9276     0.0000     4.0000 </r>
       <r>   -45.7012     0.0000     4.0000 </r>
       <r>   -45.4749     0.0000     4.0000 </r>
       <r>   -45.2485     0.0000     4.0000 </r>
       <r>   -45.0221     0.0000     4.0000 </r>
       <r>   -44.7957     0.0000     4.0000 </r>
       <r>   -44.5693     0.0000     4.0000 </r>
       <r>   -44.3429     0.0000     4.0000 </r>
       <r>   -44.1165     0.0000     4.0000 </r>
       <r>   -43.8901     0.0000     4.0000 </r>
       <r>   -43.6637     0.0000     4.0000 </r>
       <r>   -43.4373     0.0000     4.0000 </r>
       <r>   -43.2109     0.0000     4.0000 </r>
       <r>   -42.9845     0.0000     4.0000 </r>
       <r>   -42.7581     0.0000     4.0000 </r>
       <r>   -42.5317     0.0000     4.0000 </r>
       <r>   -42.3053     0.0000     4.0000 </r>
       <r>   -42.0789     0.0000     4.0000 </r>
       <r>   -41.8525     0.0000     4.0000 </r>
       <r>   -41.6261     0.0000     4.0000 </r>
       <r>   -41.3997     0.0000     4.0000 </r>
       <r>   -41.1733     0.0000     4.0000 </r>
       <r>   -40.9470     0.0000     4.0000 </r>
       <r>   -40.7206     0.0000     4.0000 </r>
       <r>   -40.4942     0.0000     4.0000 </r>
       <r>   -40.2678     0.0000     4.0000 </r>
       <r>   -40.0414     0.0000     4.0000 </r>
       <r>   -39.8150     0.0000     4.0000 </r>
       <r>   -39.5886     0.0000     4.0000 </r>
       <r>   -39.3622     0.0000     4.0000 </r>
       <r>   -39.1358     0.0000     4.0000 </r>
       <r>   -38.9094     0.0000     4.0000 </r>
       <r>   -38.6830     0.0000     4.0000 </r>
       <r>   -38.4566     0.0000     4.0000 </r>
       <r>   -38.2302     0.0000     4.0000 </r>
       <r>   -38.0038     0.0000     4.0000 </r>
       <r>   -37.7774     0.0000     4.0000 </r>
       <r>   -37.5510     0.0000     4.0000 </r>
       <r>   -37.3246     0.0000     4.0000 </r>
       <r>   -37.0982     0.0000     4.0000 </r>
       <r>   -36.8718     0.0000     4.0000 </r>
       <r>   -36.6454     0.0000     4.0000 </r>
       <r>   -36.4190     0.0000     4.0000 </r>
       <r>   -36.1927     0.0000     4.0000 </r>
       <r>   -35.9663     0.0000     4.0000 </r>
       <r>   -35.7399     0.0000     4.0000 </r>
       <r>   -35.5135     0.0000     4.0000 </r>
       <r>   -35.2871     0.0000     4.0000 </r>
       <r>   -35.0607     0.0000     4.0000 </r>
       <r>   -34.8343     0.0000     4.0000 </r>
       <r>   -34.6079     0.0000     4.0000 </r>
       <r>   -34.3815     0.0000     4.0000 </r>
       <r>   -34.1551     0.0000     4.0000 </r>
       <r>   -33.9287     0.0000     4.0000 </r>
       <r>   -33.7023     0.0000     4.0000 </r>
       <r>   -33.4759     0.0000     4.0000 </r>
       <r>   -33.2495     0.0000     4.0000 </r>
       <r>   -33.0231     0.0000     4.0000 </r>
       <r>   -32.7967     0.0000     4.0000 </r>
       <r>   -32.5703     0.0000     4.0000 </r>
       <r>   -32.3439     0.0000     4.0000 </r>
       <r>   -32.1175     0.0000     4.0000 </r>
       <r>   -31.8911     0.0000     4.0000 </r>
       <r>   -31.6648     0.0000     4.0000 </r>
       <r>   -31.4384     0.0000     4.0000 </r>
       <r>   -31.2120     0.0000     4.0000 </r>
       <r>   -30.9856     0.0000     4.0000 </r>
       <r>   -30.7592     0.0000     4.0000 </r>
       <r>   -30.5328     0.0000     4.0000 </r>
       <r>   -30.3064     0.0000     4.0000 </r>
       <r>   -30.0800     0.0000     4.0000 </r>
       <r>   -29.8536     0.0000     4.0000 </r>
       <r>   -29.6272     0.0000     4.0000 </r>
       <r>   -29.4008     0.0000     4.0000 </r>
       <r>   -29.1744     0.0000     4.0000 </r>
       <r>   -28.9480     0.0000     4.0000 </r>
       <r>   -28.7216     2.7771     5.2954 </r>
       <r>   -28.4952    14.2906    10.1983 </r>
       <r>   -28.2688     0.0000    16.0000 </r>
       <r>   -28.0424     0.0000    16.0000 </r>
       <r>   -27.8160     0.0000    16.0000 </r>
       <r>   -27.5896     0.0000    16.0000 </r>
       <r>   -27.3632     0.0000    16.0000 </r>
       <r>   -27.1369     0.0000    16.0000 </r>
       <r>   -26.9105     0.0000    16.0000 </r>
       <r>   -26.6841     0.0000    16.0000 </r>
       <r>   -26.4577     0.0000    16.0000 </r>
       <r>   -26.2313     0.0000    16.0000 </r>
       <r>   -26.0049     0.0000    16.0000 </r>
       <r>   -25.7785     0.0000    16.0000 </r>
       <r>   -25.5521     0.0000    16.0000 </r>
       <r>   -25.3257     0.0000    16.0000 </r>
       <r>   -25.0993     0.0000    16.0000 </r>
       <r>   -24.8729     0.0000    16.0000 </r>
       <r>   -24.6465     0.0000    16.0000 </r>
       <r>   -24.4201     0.0000    16.0000 </r>
       <r>   -24.1937     0.0000    16.0000 </r>
       <r>   -23.9673     0.0000    16.0000 </r>
       <r>   -23.7409     0.0000    16.0000 </r>
       <r>   -23.5145     0.0000    16.0000 </r>
       <r>   -23.2881     0.0000    16.0000 </r>
       <r>   -23.0617     0.0000    16.0000 </r>
       <r>   -22.8353     0.0000    16.0000 </r>
       <r>   -22.6090     0.0000    16.0000 </r>
       <r>   -22.3826     0.0000    16.0000 </r>
       <r>   -22.1562     0.0000    16.0000 </r>
       <r>   -21.9298     0.0000    16.0000 </r>
       <r>   -21.7034     0.0000    16.0000 </r>
       <r>   -21.4770     0.0000    16.0000 </r>
       <r>   -21.2506     0.0000    16.0000 </r>
       <r>   -21.0242     0.0000    16.0000 </r>
       <r>   -20.7978     0.0000    16.0000 </r>
       <r>   -20.5714     0.0000    16.0000 </r>
       <r>   -20.3450     0.0000    16.0000 </r>
       <r>   -20.1186     0.0000    16.0000 </r>
       <r>   -19.8922     0.0000    16.0000 </r>
       <r>   -19.6658     0.0000    16.0000 </r>
       <r>   -19.4394     0.0000    16.0000 </r>
       <r>   -19.2130     0.0000    16.0000 </r>
       <r>   -18.9866     0.0000    16.0000 </r>
       <r>   -18.7602     0.0000    16.0000 </r>
       <r>   -18.5338     0.0000    16.0000 </r>
       <r>   -18.3074     0.0000    16.0000 </r>
       <r>   -18.0811     0.0000    16.0000 </r>
       <r>   -17.8547     0.0000    16.0000 </r>
       <r>   -17.6283     0.0000    16.0000 </r>
       <r>   -17.4019     0.0000    16.0000 </r>
       <r>   -17.1755     0.0000    16.0000 </r>
       <r>   -16.9491     0.0000    16.0000 </r>
       <r>   -16.7227     0.0000    16.0000 </r>
       <r>   -16.4963     0.0000    16.0000 </r>
       <r>   -16.2699     0.0000    16.0000 </r>
       <r>   -16.0435     0.0000    16.0000 </r>
       <r>   -15.8171     0.0000    16.0000 </r>
       <r>   -15.5907     0.0000    16.0000 </r>
       <r>   -15.3643     0.0000    16.0000 </r>
       <r>   -15.1379     0.0000    16.0000 </r>
       <r>   -14.9115     0.0000    16.0000 </r>
       <r>   -14.6851     0.0000    16.0000 </r>
       <r>   -14.4587     0.0000    16.0000 </r>
       <r>   -14.2323     0.0000    16.0000 </r>
       <r>   -14.0059     0.0000    16.0000 </r>
       <r>   -13.7795     0.0000    16.0000 </r>
       <r>   -13.5532     0.0000    16.0000 </r>
       <r>   -13.3268     0.0000    16.0000 </r>
       <r>   -13.1004     0.0000    16.0000 </r>
       <r>   -12.8740     0.0000    16.0000 </r>
       <r>   -12.6476     0.1636    16.0463 </r>
       <r>   -12.4212     0.0563    16.1146 </r>
       <r>   -12.1948     0.1636    16.3982 </r>
       <r>   -11.9684     0.8180    16.8981 </r>
       <r>   -11.7420     0.3285    17.5096 </r>
       <r>   -11.5156     2.9396    18.7674 </r>
       <r>   -11.2892     0.9649    19.9962 </r>
       <r>   -11.0628     5.8100    22.6117 </r>
       <r>   -10.8364     0.4055    23.9992 </r>
       <r>   -10.6100     0.0000    24.0000 </r>
       <r>   -10.3836     0.0000    24.0000 </r>
       <r>   -10.1572     0.0000    24.0000 </r>
       <r>    -9.9308     0.0000    24.0000 </r>
       <r>    -9.7044     0.0000    24.0000 </r>
       <r>    -9.4780     0.0000    24.0000 </r>
       <r>    -9.2516     0.0000    24.0000 </r>
       <r>    -9.0252     0.0000    24.0000 </r>
       <r>    -8.7989     0.0000    24.0000 </r>
       <r>    -8.5725     0.0000    24.0000 </r>
       <r>    -8.3461     0.0000    24.0000 </r>
       <r>    -8.1197     0.0000    24.0000 </r>
       <r>    -7.8933     0.0000    24.0000 </r>
       <r>    -7.6669     0.0000    24.0000 </r>
       <r>    -7.4405     0.0000    24.0000 </r>
       <r>    -7.2141     0.0000    24.0000 </r>
       <r>    -6.9877     0.0000    24.0000 </r>
       <r>    -6.7613     0.0000    24.0000 </r>
       <r>    -6.5349     0.0000    24.0000 </r>
       <r>    -6.3085     0.0000    24.0000 </r>
       <r>    -6.0821     0.0000    24.0000 </r>
       <r>    -5.8557     0.0000    24.0000 </r>
       <r>    -5.6293     0.0000    24.0000 </r>
       <r>    -5.4029     0.0000    24.0000 </r>
       <r>    -5.1765     0.0000    24.0000 </r>
       <r>    -4.9501     0.0000    24.0000 </r>
       <r>    -4.7237     0.0000    24.0000 </r>
       <r>    -4.4973     0.0000    24.0000 </r>
       <r>    -4.2710     0.0000    24.0000 </r>
       <r>    -4.0446     0.0000    24.0000 </r>
       <r>    -3.8182     0.0000    24.0000 </r>
       <r>    -3.5918     0.0000    24.0000 </r>
       <r>    -3.3654     0.0000    24.0000 </r>
       <r>    -3.1390     0.0000    24.0000 </r>
       <r>    -2.9126     0.0000    24.0000 </r>
       <r>    -2.6862     0.0000    24.0000 </r>
       <r>    -2.4598     0.0000    24.0000 </r>
       <r>    -2.2334     0.0000    24.0000 </r>
       <r>    -2.0070     0.0000    24.0000 </r>
       <r>    -1.7806     0.0000    24.0000 </r>
       <r>    -1.5542     0.0000    24.0000 </r>
       <r>    -1.3278     0.0000    24.0000 </r>
       <r>    -1.1014     0.0000    24.0000 </r>
       <r>    -0.8750     0.0000    24.0000 </r>
       <r>    -0.6486     0.0000    24.0000 </r>
       <r>    -0.4222     0.0000    24.0000 </r>
       <r>    -0.1958     0.0000    24.0093 </r>
       <r>     0.0306     0.2454    24.1389 </r>
       <r>     0.2569     0.7771    24.4815 </r>
       <r>     0.4833     1.2465    25.2266 </r>
       <r>     0.7097     0.7449    25.8724 </r>
       <r>     0.9361     3.3803    27.6264 </r>
       <r>     1.1625     3.5030    29.3949 </r>
       <r>     1.3889     0.2944    30.2981 </r>
       <r>     1.6153     0.4244    31.6238 </r>
       <r>     1.8417     1.4391    32.8351 </r>
       <r>     2.0681     1.4729    33.4538 </r>
       <r>     2.2945     1.0719    34.5297 </r>
       <r>     2.5209     2.3275    35.5362 </r>
       <r>     2.7473     1.5257    36.3732 </r>
       <r>     2.9737     2.4548    37.6576 </r>
       <r>     3.2001     2.4975    39.0006 </r>
       <r>     3.4265     2.4858    40.0165 </r>
       <r>     3.6529     0.9913    41.3355 </r>
       <r>     3.8793     1.3348    42.2651 </r>
       <r>     4.1057     1.8697    43.5159 </r>
       <r>     4.3321     0.7481    44.7064 </r>
       <r>     4.5585     2.2995    45.7984 </r>
       <r>     4.7848     1.4975    47.0427 </r>
       <r>     5.0112     0.6544    47.5463 </r>
       <r>     5.2376     0.4908    47.8241 </r>
       <r>     5.4640     0.2455    47.9537 </r>
       <r>     5.6904     0.0000    48.0000 </r>
       <r>     5.9168     0.0000    48.0000 </r>
       <r>     6.1432     0.0000    48.0000 </r>
       <r>     6.3696     0.0000    48.0000 </r>
       <r>     6.5960     0.0000    48.0000 </r>
       <r>     6.8224     0.0000    48.0000 </r>
       <r>     7.0488     0.0000    48.0000 </r>
       <r>     7.2752     0.0000    48.0000 </r>
       <r>     7.5016     0.0000    48.0000 </r>
       <r>     7.7280     0.0000    48.0000 </r>
       <r>     7.9544     0.1417    48.0321 </r>
       <r>     8.1808     1.6874    48.5579 </r>
       <r>     8.4072     2.0953    49.4373 </r>
       <r>     8.6336     2.9543    51.0207 </r>
       <r>     8.8600     3.0168    52.5163 </r>
       <r>     9.0864     1.2119    53.7003 </r>
       <r>     9.3127     1.1057    54.9633 </r>
       <r>     9.5391     0.0000    56.0000 </r>
       <r>     9.7655     0.0000    56.0000 </r>
       <r>     9.9919     0.0000    56.0000 </r>
       <r>    10.2183     0.0000    56.0000 </r>
       <r>    10.4447     0.0000    56.0000 </r>
       <r>    10.6711     0.0000    56.0000 </r>
       <r>    10.8975     0.0000    56.0000 </r>
       <r>    11.1239     0.0000    56.0000 </r>
       <r>    11.3503     0.0000    56.0000 </r>
       <r>    11.5767     0.0000    56.0000 </r>
       <r>    11.8031     0.0000    56.0000 </r>
       <r>    12.0295     0.0000    56.0000 </r>
       <r>    12.2559     0.0000    56.0000 </r>
       <r>    12.4823     0.0000    56.0000 </r>
      </set>
     </set>
    </array>
   </total>
  </dos>
 </calculation>
 <structure name="finalpos" >
  <crystal>
   <varray name="basis" >
    <v>       4.58400000       0.00000000       0.00000000 </v>
    <v>       0.00000000       4.58400000       0.00000000 </v>
    <v>       0.00000000       0.00000000       2.95300000 </v>
   </varray>
   <i name="volume">     62.05155437 </i>
   <varray name="rec_basis" >
    <v>       0.21815009       0.00000000       0.00000000 </v>
    <v>       0.00000000       0.21815009       0.00000000 </v>
    <v>       0.00000000       0.00000000       0.33863867 </v>
   </varray>
  </crystal>
  <varray name="positions" >
   <v>       0.00000000       0.00000000       0.00000000 </v>
   <v>       0.50000000       0.50000000       0.50000000 </v>
   <v>       0.19623686       0.80376314       0.50000000 </v>
   <v>       0.80376314       0.19623686       0.50000000 </v>
   <v>       0.30376314       0.30376314       0.00000000 </v>
   <v>       0.69623686       0.69623686       0.00000000 </v>
  </varray>
 </structure>
</modeling>
