TiO2                                    
   1.00000000000000     
     4.584000    0.000000    0.000000
     0.000000    4.584000    0.000000
     0.000000    0.000000    2.953000
   Ti   O 
     2     4
Direct
  0.000000  0.000000  0.000000
  0.500000  0.500000  0.500000
  0.196209  0.803791  0.500000
  0.803791  0.196209  0.500000
  0.303791  0.303791  0.000000
  0.696209  0.696209  0.000000
 
   48   48   32
 0.92756862716E+03 0.89144263086E+03 0.79107036358E+03 0.64773138672E+03 0.48890371373E+03
 0.33985365385E+03 0.21742171928E+03 0.12813482061E+03 0.70206430420E+02 0.37155052803E+02
 0.20911264216E+02 0.13707977260E+02 0.99853437659E+01 0.79332994939E+01 0.67245830071E+01
 0.58918098872E+01 0.51975449414E+01 0.45552827692E+01 0.39706241274E+01 0.34656915160E+01
 0.30375500197E+01 0.26817911725E+01 0.24173087612E+01 0.22631379639E+01 0.22145799185E+01
 0.22631379639E+01 0.24173087612E+01 0.26817911725E+01 0.30375500197E+01 0.34656915160E+01
 0.39706241274E+01 0.45552827692E+01 0.51975449414E+01 0.58918098872E+01 0.67245830071E+01
 0.79332994939E+01 0.99853437659E+01 0.13707977260E+02 0.20911264216E+02 0.37155052803E+02
 0.70206430420E+02 0.12813482061E+03 0.21742171928E+03 0.33985365385E+03 0.48890371373E+03
 0.64773138672E+03 0.79107036358E+03 0.89144263086E+03 0.89144263086E+03 0.85687289029E+03
 0.76080567855E+03 0.62369576662E+03 0.47174483374E+03 0.32895507880E+03 0.21136495462E+03
 0.12533987253E+03 0.69406953282E+02 0.37532254095E+02 0.21965410596E+02 0.15081157126E+02
 0.11496766828E+02 0.95083329860E+01 0.83026758710E+01 0.74173223368E+01 0.66211760049E+01
 0.58390172820E+01 0.50894739760E+01 0.44063105449E+01 0.37963737248E+01 0.32628131921E+01
 0.28289331281E+01 0.25153693273E+01 0.23174813434E+01 0.22255566009E+01 0.22453981343E+01
 0.23787226145E+01 0.26050941087E+01 0.29063880332E+01 0.32898329318E+01 0.37638330467E+01
 0.43140816393E+01 0.49414941912E+01 0.57322565270E+01 0.69128395896E+01 0.89279250985E+01
 0.12571015408E+02 0.19514266674E+02 0.34975054764E+02 0.66444387908E+02 0.12179136382E+03
 0.20741269586E+03 0.32515200036E+03 0.46873408919E+03 0.62183336129E+03 0.75997562534E+03
 0.85664297144E+03 0.79107036358E+03 0.76080567855E+03 0.67625154139E+03 0.55546954575E+03
 0.42143814914E+03 0.29517089917E+03 0.19083018599E+03 0.11428215025E+03 0.64549095890E+02
 0.36438213834E+02 0.22923376481E+02 0.16897445076E+02 0.13690402464E+02 0.11888186819E+02
 0.10728649105E+02 0.97769707026E+01 0.88262259265E+01 0.78279571045E+01 0.68255150663E+01
 0.58729861703E+01 0.49944596118E+01 0.42062161229E+01 0.35387086422E+01 0.30157563484E+01
 0.26348572482E+01 0.23864072656E+01 0.22725789545E+01 0.22899602820E+01 0.24144911741E+01
 0.26254175632E+01 0.29277220295E+01 0.33306352035E+01 0.38243516696E+01 0.44114322828E+01
 0.51682980096E+01 0.62950831552E+01 0.81878641130E+01 0.11560898303E+02 0.17774185317E+02
 0.31219854788E+02 0.58719296333E+02 0.10745056538E+03 0.18322166134E+03 0.28769536036E+03
 0.41524310309E+03 0.55128712045E+03 0.67404282087E+03 0.75997562534E+03 0.64773138672E+03
 0.62369576662E+03 0.55546954575E+03 0.45764232022E+03 0.34872777571E+03 0.24572073492E+03
 0.16028937496E+03 0.97577038453E+02 0.57127135124E+02 0.34729540457E+02 0.24286070804E+02
 0.19531649420E+02 0.16983699108E+02 0.15536843404E+02 0.14493075189E+02 0.13456463282E+02
 0.12261538955E+02 0.10909173047E+02 0.94906679556E+01 0.81017918579E+01 0.68013914928E+01
 0.56292114468E+01 0.46249758390E+01 0.38133339959E+01 0.31913707395E+01 0.27475250483E+01
 0.24779588972E+01 0.23721290103E+01 0.24010758885E+01 0.25389719826E+01 0.27838158030E+01
 0.31407587712E+01 0.36012768022E+01 0.41660557786E+01 0.48948242051E+01 0.59497462619E+01
 0.76590062978E+01 0.10623881431E+02 0.15862889418E+02 0.26558294363E+02 0.48531488349E+02
 0.87934590971E+02 0.14965872499E+03 0.23504663321E+03 0.33940391850E+03 0.45075036508E+03
 0.55128712045E+03 0.62183336129E+03 0.48890371373E+03 0.47174483374E+03 0.42143814914E+03
 0.34872777571E+03 0.26732282062E+03 0.18997787340E+03 0.12572732747E+03 0.78853064189E+02
 0.49260630659E+02 0.33608845976E+02 0.26740907819E+02 0.23602230220E+02 0.22081377543E+02
 0.21242910540E+02 0.20432375100E+02 0.19286761520E+02 0.17697462040E+02 0.15747486602E+02
 0.13618064874E+02 0.11489941366E+02 0.94929417727E+01 0.77116362545E+01 0.61995626910E+01
 0.49753675526E+01 0.40250846175E+01 0.33252493780E+01 0.28584534533E+01 0.26027260113E+01
 0.25225332691E+01 0.25852203252E+01 0.27780915716E+01 0.30979305390E+01 0.35347791433E+01
 0.40855578709E+01 0.47897280805E+01 0.57651740926E+01 0.72621949208E+01 0.97515816099E+01
 0.13993580924E+02 0.21842753593E+02 0.37805135537E+02 0.66881782646E+02 0.11295891402E+03
 0.17705740264E+03 0.25555950703E+03 0.33940391850E+03 0.41524310309E+03 0.46873408919E+03
 0.33985365385E+03 0.32895507880E+03 0.29517089917E+03 0.24572073492E+03 0.18997787340E+03
 0.13689202059E+03 0.93067518585E+02 0.61825980869E+02 0.43151962115E+02 0.34318575393E+02
 0.31046228073E+02 0.30023690575E+02 0.30046242086E+02 0.30201463159E+02 0.29818336316E+02
 0.28539764971E+02 0.26325143544E+02 0.23383455214E+02 0.20052326428E+02 0.16672423906E+02
 0.13510129486E+02 0.10736143223E+02 0.84303887312E+01 0.65957201369E+01 0.51861440232E+01
 0.41441433197E+01 0.34216710197E+01 0.29754393865E+01 0.27590976374E+01 0.27310620028E+01
 0.28651494925E+01 0.31460375175E+01 0.35592903416E+01 0.40967006057E+01 0.47769854623E+01
 0.56733313864E+01 0.69580129148E+01 0.89706392216E+01 0.12271656678E+02 0.17776039336E+02
 0.28283452557E+02 0.47679741576E+02 0.78957814410E+02 0.12292741297E+03 0.17705740264E+03
 0.23504663321E+03 0.28769536036E+03 0.32515200036E+03 0.21742171928E+03 0.21136495462E+03
 0.19083018599E+03 0.16028937496E+03 0.12572732747E+03 0.93067518585E+02 0.66850691261E+02
 0.49384903388E+02 0.40470038499E+02 0.37767020935E+02 0.38112997229E+02 0.39955066011E+02
 0.42242006528E+02 0.44001941906E+02 0.44418185029E+02 0.43007253279E+02 0.39789279057E+02
 0.35227145452E+02 0.29957348963E+02 0.24544164581E+02 0.19484919796E+02 0.15110303646E+02
 0.11556541987E+02 0.88018524705E+01 0.67363369486E+01 0.52311068264E+01 0.41770939721E+01
 0.34904331537E+01 0.31040279768E+01 0.29630226963E+01 0.30252770196E+01 0.32601053434E+01
 0.36446807787E+01 0.41637169744E+01 0.48168813692E+01 0.56374510129E+01 0.67277925825E+01
 0.83094667355E+01 0.10763012343E+02 0.14619844422E+02 0.21009500153E+02 0.32587671356E+02
 0.51655624410E+02 0.78957814410E+02 0.11295891402E+03 0.14965872499E+03 0.18322166134E+03
 0.20741269586E+03 0.12813482061E+03 0.12533987253E+03 0.11428215025E+03 0.97577038453E+02
 0.78853064189E+02 0.61825980869E+02 0.49384903388E+02 0.42880609320E+02 0.41831369145E+02
 0.44314932246E+02 0.48901567923E+02 0.54890683606E+02 0.61222339945E+02 0.66312151322E+02
 0.68604557587E+02 0.67166707364E+02 0.62036535240E+02 0.54179927397E+02 0.45083592447E+02
 0.36150804549E+02 0.28153857124E+02 0.21323478219E+02 0.15868729543E+02 0.11746183236E+02
 0.87439200833E+01 0.66097932438E+01 0.51284471024E+01 0.41440000864E+01 0.35499027838E+01
 0.32691750781E+01 0.32408212745E+01 0.34166499245E+01 0.37616720772E+01 0.42512482389E+01
 0.48691016568E+01 0.56170069768E+01 0.65406726974E+01 0.77649209673E+01 0.95222071782E+01
 0.12152011242E+02 0.16064120170E+02 0.22308324671E+02 0.32587671356E+02 0.47679741576E+02
 0.66881782646E+02 0.87934590971E+02 0.10745056538E+03 0.12179136382E+03 0.70206430420E+02
 0.69406953282E+02 0.64549095890E+02 0.57127135124E+02 0.49260630659E+02 0.43151962115E+02
 0.40470038499E+02 0.41831369145E+02 0.46656080627E+02 0.54358862728E+02 0.65109365527E+02
 0.78228010172E+02 0.91654337771E+02 0.10253039307E+03 0.10815736810E+03 0.10691356346E+03
 0.98792175341E+02 0.85399401275E+02 0.69421825968E+02 0.53714092173E+02 0.40313607895E+02
 0.29796326769E+02 0.21629181550E+02 0.15566438917E+02 0.11265236886E+02 0.82917586925E+01
 0.62675194287E+01 0.49219058843E+01 0.40810441360E+01 0.36314425582E+01 0.34890780348E+01
 0.35873389189E+01 0.38763818808E+01 0.43200932199E+01 0.48898184793E+01 0.55657950284E+01
 0.63523565088E+01 0.73015426894E+01 0.85343392497E+01 0.10245677406E+02 0.12677123133E+02
 0.16064120170E+02 0.21009500153E+02 0.28283452557E+02 0.37805135537E+02 0.48531488349E+02
 0.58719296333E+02 0.66444387908E+02 0.37155052803E+02 0.37532254095E+02 0.36438213834E+02
 0.34729540457E+02 0.33608845976E+02 0.34318575393E+02 0.37767020935E+02 0.44314932246E+02
 0.54358862728E+02 0.69090371616E+02 0.89041101400E+02 0.11258722988E+03 0.13613748065E+03
 0.15514994865E+03 0.16551134253E+03 0.16475196301E+03 0.15275167916E+03 0.13180147044E+03
 0.10599358262E+03 0.80022898323E+02 0.57717830078E+02 0.40870843938E+02 0.28928812941E+02
 0.20310314013E+02 0.14308809117E+02 0.10261447952E+02 0.75686477194E+01 0.57975813397E+01
 0.46741298320E+01 0.40299815494E+01 0.37521557129E+01 0.37549255980E+01 0.39715744804E+01
 0.43521969010E+01 0.48584290341E+01 0.54583296680E+01 0.61298998891E+01 0.68755905077E+01
 0.77402718142E+01 0.88193869413E+01 0.10245677406E+02 0.12152011242E+02 0.14619844422E+02
 0.17776039336E+02 0.21842753593E+02 0.26558294363E+02 0.31219854788E+02 0.34975054764E+02
 0.20911264216E+02 0.21965410596E+02 0.22923376481E+02 0.24286070804E+02 0.26740907819E+02
 0.31046228073E+02 0.38112997229E+02 0.48901567923E+02 0.65109365527E+02 0.89041101400E+02
 0.12073917959E+03 0.15720592545E+03 0.19298760233E+03 0.22167925453E+03 0.23768799021E+03
 0.23766777003E+03 0.22134298829E+03 0.19163942371E+03 0.15405562725E+03 0.11525744539E+03
 0.81167723359E+02 0.55223568894E+02 0.37597111295E+02 0.25843790050E+02 0.17789376774E+02
 0.12456999238E+02 0.89835026655E+01 0.67330277840E+01 0.53009339742E+01 0.44459478751E+01
 0.40192791679E+01 0.39150018185E+01 0.40479030205E+01 0.43518508665E+01 0.47798606964E+01
 0.52948384461E+01 0.58612768306E+01 0.64523089480E+01 0.70671306380E+01 0.77402718142E+01
 0.85343392497E+01 0.95222071782E+01 0.10763012343E+02 0.12271656678E+02 0.13993580924E+02
 0.15862889418E+02 0.17774185317E+02 0.19514266674E+02 0.13707977260E+02 0.15081157126E+02
 0.16897445076E+02 0.19531649420E+02 0.23602230220E+02 0.30023690575E+02 0.39955066011E+02
 0.54890683606E+02 0.78228010172E+02 0.11258722988E+03 0.15720592545E+03 0.20748656007E+03
 0.25604484363E+03 0.29468688485E+03 0.31647380316E+03 0.31728844315E+03 0.29671600497E+03
 0.25821966891E+03 0.20852390408E+03 0.15610169768E+03 0.10894802891E+03 0.72322450684E+02
 0.47439585231E+02 0.31787855438E+02 0.21492788655E+02 0.14754869613E+02 0.10437222769E+02
 0.76800733805E+01 0.59296445680E+01 0.48591561965E+01 0.42786887019E+01 0.40615693917E+01
 0.41038970684E+01 0.43221411420E+01 0.46609315444E+01 0.50820275022E+01 0.55452864098E+01
 0.60098201932E+01 0.64523089480E+01 0.68755905077E+01 0.73015426894E+01 0.77649209673E+01
 0.83094667355E+01 0.89706392216E+01 0.97515816099E+01 0.10623881431E+02 0.11560898303E+02
 0.12571015408E+02 0.99853437659E+01 0.11496766828E+02 0.13690402464E+02 0.16983699108E+02
 0.22081377543E+02 0.30046242086E+02 0.42242006528E+02 0.61222339945E+02 0.91654337771E+02
 0.13613748065E+03 0.19298760233E+03 0.25604484363E+03 0.31618241965E+03 0.36368679064E+03
 0.39054089373E+03 0.39205963105E+03 0.36777245228E+03 0.32158812772E+03 0.26117442902E+03
 0.19641697288E+03 0.13703782777E+03 0.89972634575E+02 0.57571236151E+02 0.37567855125E+02
 0.25077238008E+02 0.16969639921E+02 0.11829340879E+02 0.85824320897E+01 0.65272183428E+01
 0.52499211163E+01 0.45187271006E+01 0.41874705853E+01 0.41356039270E+01 0.42634071021E+01
 0.45076300202E+01 0.48303658303E+01 0.51914007233E+01 0.55452864098E+01 0.58612768306E+01
 0.61298998891E+01 0.63523565088E+01 0.65406726973E+01 0.67277925825E+01 0.69580129148E+01
 0.72621949208E+01 0.76590062978E+01 0.81878641130E+01 0.89279250985E+01 0.79332994939E+01
 0.95083329860E+01 0.11888186819E+02 0.15536843404E+02 0.21242910540E+02 0.30201463159E+02
 0.44001941906E+02 0.66312151322E+02 0.10253039307E+03 0.15514994865E+03 0.22167925453E+03
 0.29468688485E+03 0.36368679064E+03 0.41783186999E+03 0.44836098804E+03 0.45027189498E+03
 0.42316021935E+03 0.37130613838E+03 0.30300716166E+03 0.22905045037E+03 0.16031833707E+03
 0.10498434240E+03 0.66356828214E+02 0.42517391016E+02 0.28125046684E+02 0.18877456536E+02
 0.13044026112E+02 0.93808662297E+01 0.70640985853E+01 0.56061513306E+01 0.47390768811E+01
 0.43004392293E+01 0.41565661625E+01 0.41946935329E+01 0.43448815698E+01 0.45696425783E+01
 0.48303658303E+01 0.50820275022E+01 0.52948384461E+01 0.54583296680E+01 0.55657950284E+01
 0.56170069768E+01 0.56374510129E+01 0.56733313864E+01 0.57651740926E+01 0.59497462619E+01
 0.62950831552E+01 0.69128395896E+01 0.67245830071E+01 0.83026758710E+01 0.10728649105E+02
 0.14493075189E+02 0.20432375100E+02 0.29818336316E+02 0.44418185029E+02 0.68604557587E+02
 0.10815736810E+03 0.16551134253E+03 0.23768799021E+03 0.31647380316E+03 0.39054089373E+03
 0.44836098804E+03 0.48078558748E+03 0.48274264467E+03 0.45399794467E+03 0.39911505186E+03
 0.32670795279E+03 0.24793981337E+03 0.17420032891E+03 0.11428074553E+03 0.72045457775E+02
 0.45853025155E+02 0.30235868777E+02 0.20261646359E+02 0.13970746579E+02 0.10022206535E+02
 0.75184857908E+01 0.59257720511E+01 0.49522634126E+01 0.44239943230E+01 0.41981825890E+01
 0.41532872786E+01 0.42146231075E+01 0.43448815698E+01 0.45076300202E+01 0.46609315444E+01
 0.47798606964E+01 0.48584290341E+01 0.48898184793E+01 0.48691016568E+01 0.48168813692E+01
 0.47769854623E+01 0.47897280805E+01 0.48948242051E+01 0.51682980096E+01 0.57322565270E+01
 0.58918098872E+01 0.74173223368E+01 0.97769707026E+01 0.13456463282E+02 0.19286761520E+02
 0.28539764971E+02 0.43007253279E+02 0.67166707364E+02 0.10691356346E+03 0.16475196301E+03
 0.23766777003E+03 0.31728844315E+03 0.39205963105E+03 0.45027189498E+03 0.48274264467E+03
 0.48452901769E+03 0.45560079179E+03 0.40066779792E+03 0.32835155232E+03 0.24970674616E+03
 0.17599449483E+03 0.11594681636E+03 0.73462326286E+02 0.46986895350E+02 0.31130528380E+02
 0.20967088499E+02 0.14530378744E+02 0.10470921277E+02 0.78800466548E+01 0.62145399858E+01
 0.51754885389E+01 0.45833824698E+01 0.42908899771E+01 0.41730217058E+01 0.41532872786E+01
 0.41946935329E+01 0.42634071021E+01 0.43221411420E+01 0.43518508665E+01 0.43521969010E+01
 0.43200932199E+01 0.42512482389E+01 0.41637169744E+01 0.40967006057E+01 0.40855578709E+01
 0.41660557786E+01 0.44114322828E+01 0.49414941912E+01 0.51975449414E+01 0.66211760049E+01
 0.88262259265E+01 0.12261538955E+02 0.17697462040E+02 0.26325143544E+02 0.39789279057E+02
 0.62036535240E+02 0.98792175341E+02 0.15275167916E+03 0.22134298829E+03 0.29671600497E+03
 0.36777245228E+03 0.42316021935E+03 0.45399794467E+03 0.45560079179E+03 0.42809115423E+03
 0.37613405877E+03 0.30805188159E+03 0.23435480542E+03 0.16560031846E+03 0.10982510470E+03
 0.70447984530E+02 0.45794981389E+02 0.30727860477E+02 0.20944106032E+02 0.14698721162E+02
 0.10722144914E+02 0.81583426089E+01 0.64926963989E+01 0.54366650641E+01 0.48115838461E+01
 0.44705000697E+01 0.42908899771E+01 0.41981825890E+01 0.41565661625E+01 0.41356039270E+01
 0.41038970684E+01 0.40479030205E+01 0.39715744804E+01 0.38763818808E+01 0.37616720772E+01
 0.36446807787E+01 0.35592903416E+01 0.35347791433E+01 0.36012768022E+01 0.38243516696E+01
 0.43140816393E+01 0.45552827692E+01 0.58390172820E+01 0.78279571045E+01 0.10909173047E+02
 0.15747486602E+02 0.23383455214E+02 0.35227145452E+02 0.54179927397E+02 0.85399401275E+02
 0.13180147044E+03 0.19163942371E+03 0.25821966891E+03 0.32158812772E+03 0.37130613838E+03
 0.39911505186E+03 0.40066779792E+03 0.37613405877E+03 0.32991157115E+03 0.26971498770E+03
 0.20510353626E+03 0.14542683075E+03 0.97502881385E+02 0.63881830769E+02 0.42650989122E+02
 0.29167643568E+02 0.20266573098E+02 0.14520813575E+02 0.10814593997E+02 0.83969750879E+01
 0.68126675887E+01 0.57972514692E+01 0.51777936741E+01 0.48115838461E+01 0.45833824698E+01
 0.44239943230E+01 0.43004392293E+01 0.41874705853E+01 0.40615693917E+01 0.39150018185E+01
 0.37549255980E+01 0.35873389189E+01 0.34166499245E+01 0.32601053434E+01 0.31460375175E+01
 0.30979305390E+01 0.31407587712E+01 0.33306352035E+01 0.37638330467E+01 0.39706241274E+01
 0.50894739760E+01 0.68255150663E+01 0.94906679556E+01 0.13618064874E+02 0.20052326428E+02
 0.29957348963E+02 0.45083592447E+02 0.69421825968E+02 0.10599358262E+03 0.15405562725E+03
 0.20852390408E+03 0.26117442902E+03 0.30300716166E+03 0.32670795279E+03 0.32835155232E+03
 0.30805188159E+03 0.26971498770E+03 0.22013589740E+03 0.16753945797E+03 0.11965742682E+03
 0.81744939741E+02 0.55305651585E+02 0.38222100608E+02 0.26773463671E+02 0.19118739574E+02
 0.14111515928E+02 0.10837807303E+02 0.86835061321E+01 0.72696939081E+01 0.63626906904E+01
 0.57972514692E+01 0.54366650641E+01 0.51754885389E+01 0.49522634126E+01 0.47390768811E+01
 0.45187271006E+01 0.42786887019E+01 0.40192791679E+01 0.37521557129E+01 0.34890780348E+01
 0.32408212745E+01 0.30252770196E+01 0.28651494925E+01 0.27780915716E+01 0.27838158030E+01
 0.29277220295E+01 0.32898329318E+01 0.34656915160E+01 0.44063105449E+01 0.58729861703E+01
 0.81017918579E+01 0.11489941366E+02 0.16672423906E+02 0.24544164581E+02 0.36150804549E+02
 0.53714092173E+02 0.80022898323E+02 0.11525744539E+03 0.15610169768E+03 0.19641697288E+03
 0.22905045037E+03 0.24793981337E+03 0.24970674616E+03 0.23435480542E+03 0.20510353626E+03
 0.16753945797E+03 0.12823495227E+03 0.93049181369E+02 0.65567499889E+02 0.46310594999E+02
 0.33170586250E+02 0.23970192014E+02 0.17755347271E+02 0.13639617134E+02 0.10926461489E+02
 0.91453099195E+01 0.79944671650E+01 0.72696939081E+01 0.68126675887E+01 0.64926963989E+01
 0.62145399858E+01 0.59257720511E+01 0.56061513306E+01 0.52499211163E+01 0.48591561965E+01
 0.44459478751E+01 0.40299815494E+01 0.36314425582E+01 0.32691750781E+01 0.29630226963E+01
 0.27310620028E+01 0.25852203252E+01 0.25389719826E+01 0.26254175632E+01 0.29063880332E+01
 0.30375500197E+01 0.37963737248E+01 0.49944596118E+01 0.68013914928E+01 0.94929417727E+01
 0.13510129486E+02 0.19484919796E+02 0.28153857124E+02 0.40313607895E+02 0.57717830078E+02
 0.81167723359E+02 0.10894802891E+03 0.13703782777E+03 0.16031833707E+03 0.17420032891E+03
 0.17599449483E+03 0.16560031846E+03 0.14542683075E+03 0.11965742682E+03 0.93049181369E+02
 0.69561798319E+02 0.51259095676E+02 0.37941627570E+02 0.28141632904E+02 0.21185061291E+02
 0.16448090810E+02 0.13298829929E+02 0.11242874547E+02 0.99375122579E+01 0.91453099195E+01
 0.86835061321E+01 0.83969750879E+01 0.81583426089E+01 0.78800466548E+01 0.75184857908E+01
 0.70640985853E+01 0.65272183428E+01 0.59296445680E+01 0.53009339742E+01 0.46741298320E+01
 0.40810441360E+01 0.35499027838E+01 0.31040279768E+01 0.27590976374E+01 0.25225332691E+01
 0.24010758885E+01 0.24144911741E+01 0.26050941087E+01 0.26817911725E+01 0.32628131921E+01
 0.42062161229E+01 0.56292114468E+01 0.77116362545E+01 0.10736143223E+02 0.15110303646E+02
 0.21323478219E+02 0.29796326769E+02 0.40870843938E+02 0.55223568894E+02 0.72322450684E+02
 0.89972634575E+02 0.10498434240E+03 0.11428074553E+03 0.11594681636E+03 0.10982510470E+03
 0.97502881385E+02 0.81744939741E+02 0.65567499889E+02 0.51259095676E+02 0.39715748163E+02
 0.30580331449E+02 0.23675092465E+02 0.18765440238E+02 0.15437481060E+02 0.13279234684E+02
 0.11962341976E+02 0.11242874547E+02 0.10926461489E+02 0.10837807303E+02 0.10814593997E+02
 0.10722144914E+02 0.10470921277E+02 0.10022206535E+02 0.93808662297E+01 0.85824320897E+01
 0.76800733805E+01 0.67330277840E+01 0.57975813397E+01 0.49219058843E+01 0.41440000864E+01
 0.34904331537E+01 0.29754393865E+01 0.26027260113E+01 0.23721290103E+01 0.22899602820E+01
 0.23787226145E+01 0.24173087612E+01 0.28289331281E+01 0.35387086422E+01 0.46249758390E+01
 0.61995626910E+01 0.84303887312E+01 0.11556541987E+02 0.15868729543E+02 0.21629181550E+02
 0.28928812941E+02 0.37597111295E+02 0.47439585231E+02 0.57571236151E+02 0.66356828214E+02
 0.72045457775E+02 0.73462326286E+02 0.70447984530E+02 0.63881830769E+02 0.55305651585E+02
 0.46310594999E+02 0.37941627570E+02 0.30580331449E+02 0.24590004665E+02 0.20086407316E+02
 0.16938215892E+02 0.14908499938E+02 0.13756870256E+02 0.13279234684E+02 0.13298829929E+02
 0.13639617134E+02 0.14111515928E+02 0.14520813575E+02 0.14698721162E+02 0.14530378744E+02
 0.13970746579E+02 0.13044026112E+02 0.11829340879E+02 0.10437222769E+02 0.89835026655E+01
 0.75686477194E+01 0.62675194287E+01 0.51284471024E+01 0.41770939721E+01 0.34216710197E+01
 0.28584534533E+01 0.24779588972E+01 0.22725789545E+01 0.22453981343E+01 0.22631379639E+01
 0.25153693273E+01 0.30157563484E+01 0.38133339959E+01 0.49753675526E+01 0.65957201369E+01
 0.88018524705E+01 0.11746183236E+02 0.15566438917E+02 0.20310314013E+02 0.25843790050E+02
 0.31787855438E+02 0.37567855125E+02 0.42517391016E+02 0.45853025155E+02 0.46986895350E+02
 0.45794981389E+02 0.42650989122E+02 0.38222100608E+02 0.33170586250E+02 0.28141632904E+02
 0.23675092465E+02 0.20086407316E+02 0.17479683402E+02 0.15816874664E+02 0.14997153102E+02
 0.14908499938E+02 0.15437481060E+02 0.16448090810E+02 0.17755347271E+02 0.19118739574E+02
 0.20266573098E+02 0.20944106032E+02 0.20967088499E+02 0.20261646359E+02 0.18877456536E+02
 0.16969639921E+02 0.14754869613E+02 0.12456999238E+02 0.10261447952E+02 0.82917586925E+01
 0.66097932438E+01 0.52311068264E+01 0.41441433197E+01 0.33252493780E+01 0.27475250483E+01
 0.23864072656E+01 0.22255566009E+01 0.22145799185E+01 0.23174813434E+01 0.26348572482E+01
 0.31913707395E+01 0.40250846175E+01 0.51861440232E+01 0.67363369486E+01 0.87439200833E+01
 0.11265236886E+02 0.14308809117E+02 0.17789376774E+02 0.21492788655E+02 0.25077238008E+02
 0.28125046684E+02 0.30235868777E+02 0.31130528380E+02 0.30727860477E+02 0.29167643568E+02
 0.26773463671E+02 0.23970192014E+02 0.21185061291E+02 0.18765440238E+02 0.16938215892E+02
 0.15816874664E+02 0.15440697922E+02 0.15816874664E+02 0.16938215892E+02 0.18765440238E+02
 0.21185061291E+02 0.23970192014E+02 0.26773463671E+02 0.29167643568E+02 0.30727860477E+02
 0.31130528380E+02 0.30235868777E+02 0.28125046684E+02 0.25077238008E+02 0.21492788655E+02
 0.17789376774E+02 0.14308809117E+02 0.11265236886E+02 0.87439200833E+01 0.67363369486E+01
 0.51861440232E+01 0.40250846175E+01 0.31913707395E+01 0.26348572482E+01 0.23174813434E+01
 0.22631379639E+01 0.22255566009E+01 0.23864072656E+01 0.27475250483E+01 0.33252493780E+01
 0.41441433197E+01 0.52311068264E+01 0.66097932438E+01 0.82917586925E+01 0.10261447952E+02
 0.12456999238E+02 0.14754869613E+02 0.16969639921E+02 0.18877456536E+02 0.20261646359E+02
 0.20967088499E+02 0.20944106032E+02 0.20266573098E+02 0.19118739574E+02 0.17755347271E+02
 0.16448090810E+02 0.15437481060E+02 0.14908499938E+02 0.14997153102E+02 0.15816874664E+02
 0.17479683402E+02 0.20086407316E+02 0.23675092465E+02 0.28141632904E+02 0.33170586250E+02
 0.38222100608E+02 0.42650989122E+02 0.45794981389E+02 0.46986895350E+02 0.45853025155E+02
 0.42517391016E+02 0.37567855125E+02 0.31787855438E+02 0.25843790050E+02 0.20310314013E+02
 0.15566438917E+02 0.11746183236E+02 0.88018524705E+01 0.65957201369E+01 0.49753675526E+01
 0.38133339959E+01 0.30157563484E+01 0.25153693273E+01 0.24173087612E+01 0.22453981343E+01
 0.22725789545E+01 0.24779588972E+01 0.28584534533E+01 0.34216710197E+01 0.41770939721E+01
 0.51284471024E+01 0.62675194287E+01 0.75686477194E+01 0.89835026655E+01 0.10437222769E+02
 0.11829340879E+02 0.13044026112E+02 0.13970746579E+02 0.14530378744E+02 0.14698721162E+02
 0.14520813575E+02 0.14111515928E+02 0.13639617134E+02 0.13298829929E+02 0.13279234684E+02
 0.13756870256E+02 0.14908499938E+02 0.16938215892E+02 0.20086407316E+02 0.24590004665E+02
 0.30580331449E+02 0.37941627570E+02 0.46310594999E+02 0.55305651585E+02 0.63881830769E+02
 0.70447984530E+02 0.73462326286E+02 0.72045457775E+02 0.66356828214E+02 0.57571236151E+02
 0.47439585231E+02 0.37597111295E+02 0.28928812941E+02 0.21629181550E+02 0.15868729543E+02
 0.11556541987E+02 0.84303887312E+01 0.61995626910E+01 0.46249758390E+01 0.35387086422E+01
 0.28289331281E+01 0.26817911725E+01 0.23787226145E+01 0.22899602820E+01 0.23721290103E+01
 0.26027260113E+01 0.29754393865E+01 0.34904331537E+01 0.41440000864E+01 0.49219058843E+01
 0.57975813397E+01 0.67330277840E+01 0.76800733805E+01 0.85824320897E+01 0.93808662297E+01
 0.10022206535E+02 0.10470921277E+02 0.10722144914E+02 0.10814593997E+02 0.10837807303E+02
 0.10926461489E+02 0.11242874547E+02 0.11962341976E+02 0.13279234684E+02 0.15437481060E+02
 0.18765440238E+02 0.23675092465E+02 0.30580331449E+02 0.39715748163E+02 0.51259095676E+02
 0.65567499889E+02 0.81744939741E+02 0.97502881385E+02 0.10982510470E+03 0.11594681636E+03
 0.11428074553E+03 0.10498434240E+03 0.89972634575E+02 0.72322450684E+02 0.55223568894E+02
 0.40870843938E+02 0.29796326769E+02 0.21323478219E+02 0.15110303646E+02 0.10736143223E+02
 0.77116362545E+01 0.56292114468E+01 0.42062161229E+01 0.32628131921E+01 0.30375500197E+01
 0.26050941087E+01 0.24144911741E+01 0.24010758885E+01 0.25225332691E+01 0.27590976374E+01
 0.31040279768E+01 0.35499027838E+01 0.40810441360E+01 0.46741298320E+01 0.53009339742E+01
 0.59296445680E+01 0.65272183428E+01 0.70640985853E+01 0.75184857908E+01 0.78800466548E+01
 0.81583426089E+01 0.83969750879E+01 0.86835061321E+01 0.91453099195E+01 0.99375122579E+01
 0.11242874547E+02 0.13298829929E+02 0.16448090810E+02 0.21185061291E+02 0.28141632904E+02
 0.37941627570E+02 0.51259095676E+02 0.69561798319E+02 0.93049181369E+02 0.11965742682E+03
 0.14542683075E+03 0.16560031846E+03 0.17599449483E+03 0.17420032891E+03 0.16031833707E+03
 0.13703782777E+03 0.10894802891E+03 0.81167723359E+02 0.57717830078E+02 0.40313607895E+02
 0.28153857124E+02 0.19484919796E+02 0.13510129486E+02 0.94929417727E+01 0.68013914928E+01
 0.49944596118E+01 0.37963737248E+01 0.34656915160E+01 0.29063880332E+01 0.26254175632E+01
 0.25389719826E+01 0.25852203252E+01 0.27310620028E+01 0.29630226963E+01 0.32691750781E+01
 0.36314425582E+01 0.40299815494E+01 0.44459478751E+01 0.48591561965E+01 0.52499211163E+01
 0.56061513306E+01 0.59257720511E+01 0.62145399858E+01 0.64926963989E+01 0.68126675887E+01
 0.72696939081E+01 0.79944671650E+01 0.91453099195E+01 0.10926461489E+02 0.13639617134E+02
 0.17755347271E+02 0.23970192014E+02 0.33170586250E+02 0.46310594999E+02 0.65567499889E+02
 0.93049181369E+02 0.12823495227E+03 0.16753945797E+03 0.20510353626E+03 0.23435480542E+03
 0.24970674616E+03 0.24793981337E+03 0.22905045037E+03 0.19641697288E+03 0.15610169768E+03
 0.11525744539E+03 0.80022898323E+02 0.53714092173E+02 0.36150804549E+02 0.24544164581E+02
 0.16672423906E+02 0.11489941366E+02 0.81017918579E+01 0.58729861703E+01 0.44063105449E+01
 0.39706241274E+01 0.32898329318E+01 0.29277220295E+01 0.27838158030E+01 0.27780915716E+01
 0.28651494925E+01 0.30252770196E+01 0.32408212745E+01 0.34890780348E+01 0.37521557129E+01
 0.40192791679E+01 0.42786887019E+01 0.45187271006E+01 0.47390768811E+01 0.49522634126E+01
 0.51754885389E+01 0.54366650641E+01 0.57972514692E+01 0.63626906904E+01 0.72696939081E+01
 0.86835061321E+01 0.10837807303E+02 0.14111515928E+02 0.19118739574E+02 0.26773463671E+02
 0.38222100608E+02 0.55305651585E+02 0.81744939741E+02 0.11965742682E+03 0.16753945797E+03
 0.22013589740E+03 0.26971498770E+03 0.30805188159E+03 0.32835155232E+03 0.32670795279E+03
 0.30300716166E+03 0.26117442902E+03 0.20852390408E+03 0.15405562725E+03 0.10599358262E+03
 0.69421825968E+02 0.45083592447E+02 0.29957348963E+02 0.20052326428E+02 0.13618064874E+02
 0.94906679556E+01 0.68255150663E+01 0.50894739760E+01 0.45552827692E+01 0.37638330467E+01
 0.33306352035E+01 0.31407587712E+01 0.30979305390E+01 0.31460375175E+01 0.32601053434E+01
 0.34166499245E+01 0.35873389189E+01 0.37549255980E+01 0.39150018185E+01 0.40615693917E+01
 0.41874705853E+01 0.43004392293E+01 0.44239943230E+01 0.45833824698E+01 0.48115838461E+01
 0.51777936741E+01 0.57972514692E+01 0.68126675887E+01 0.83969750879E+01 0.10814593997E+02
 0.14520813575E+02 0.20266573098E+02 0.29167643568E+02 0.42650989122E+02 0.63881830769E+02
 0.97502881385E+02 0.14542683075E+03 0.20510353626E+03 0.26971498770E+03 0.32991157115E+03
 0.37613405877E+03 0.40066779792E+03 0.39911505186E+03 0.37130613838E+03 0.32158812772E+03
 0.25821966891E+03 0.19163942371E+03 0.13180147044E+03 0.85399401275E+02 0.54179927397E+02
 0.35227145452E+02 0.23383455214E+02 0.15747486602E+02 0.10909173047E+02 0.78279571045E+01
 0.58390172820E+01 0.51975449414E+01 0.43140816393E+01 0.38243516696E+01 0.36012768022E+01
 0.35347791433E+01 0.35592903416E+01 0.36446807787E+01 0.37616720772E+01 0.38763818808E+01
 0.39715744804E+01 0.40479030205E+01 0.41038970684E+01 0.41356039270E+01 0.41565661625E+01
 0.41981825890E+01 0.42908899771E+01 0.44705000697E+01 0.48115838461E+01 0.54366650641E+01
 0.64926963989E+01 0.81583426089E+01 0.10722144914E+02 0.14698721162E+02 0.20944106032E+02
 0.30727860477E+02 0.45794981389E+02 0.70447984530E+02 0.10982510470E+03 0.16560031846E+03
 0.23435480542E+03 0.30805188159E+03 0.37613405877E+03 0.42809115423E+03 0.45560079179E+03
 0.45399794467E+03 0.42316021935E+03 0.36777245228E+03 0.29671600497E+03 0.22134298829E+03
 0.15275167916E+03 0.98792175341E+02 0.62036535240E+02 0.39789279057E+02 0.26325143544E+02
 0.17697462040E+02 0.12261538955E+02 0.88262259265E+01 0.66211760049E+01 0.58918098872E+01
 0.49414941912E+01 0.44114322828E+01 0.41660557786E+01 0.40855578709E+01 0.40967006057E+01
 0.41637169744E+01 0.42512482389E+01 0.43200932199E+01 0.43521969010E+01 0.43518508665E+01
 0.43221411420E+01 0.42634071021E+01 0.41946935329E+01 0.41532872786E+01 0.41730217058E+01
 0.42908899771E+01 0.45833824698E+01 0.51754885389E+01 0.62145399858E+01 0.78800466548E+01
 0.10470921277E+02 0.14530378744E+02 0.20967088499E+02 0.31130528380E+02 0.46986895350E+02
 0.73462326286E+02 0.11594681636E+03 0.17599449483E+03 0.24970674616E+03 0.32835155232E+03
 0.40066779792E+03 0.45560079179E+03 0.48452901769E+03 0.48274264467E+03 0.45027189498E+03
 0.39205963105E+03 0.31728844315E+03 0.23766777003E+03 0.16475196301E+03 0.10691356346E+03