   6   6   0   0
  0.1034193E+02  0.4584000E-09  0.4584000E-09  0.2953000E-09  0.5000000E-15
  1.000000000000000E-004
  CAR 
 TiO2                                    
     11.90221642    -54.66123152  301      5.35681071      1.00000000
    -54.661  0.0000E+00  0.0000E+00
    -54.439  0.0000E+00  0.0000E+00
    -54.217  0.0000E+00  0.0000E+00
    -53.996  0.0000E+00  0.0000E+00
    -53.774  0.0000E+00  0.0000E+00
    -53.552  0.0000E+00  0.0000E+00
    -53.330  0.0000E+00  0.0000E+00
    -53.108  0.0000E+00  0.0000E+00
    -52.886  0.0000E+00  0.0000E+00
    -52.664  0.0000E+00  0.0000E+00
    -52.442  0.0000E+00  0.0000E+00
    -52.221  0.0000E+00  0.0000E+00
    -51.999  0.0000E+00  0.0000E+00
    -51.777  0.0000E+00  0.0000E+00
    -51.555  0.1748E+02  0.4000E+01
    -51.333  0.0000E+00  0.4000E+01
    -51.111  0.0000E+00  0.4000E+01
    -50.889  0.0000E+00  0.4000E+01
    -50.667  0.0000E+00  0.4000E+01
    -50.446  0.0000E+00  0.4000E+01
    -50.224  0.0000E+00  0.4000E+01
    -50.002  0.0000E+00  0.4000E+01
    -49.780  0.0000E+00  0.4000E+01
    -49.558  0.0000E+00  0.4000E+01
    -49.336  0.0000E+00  0.4000E+01
    -49.114  0.0000E+00  0.4000E+01
    -48.892  0.0000E+00  0.4000E+01
    -48.671  0.0000E+00  0.4000E+01
    -48.449  0.0000E+00  0.4000E+01
    -48.227  0.0000E+00  0.4000E+01
    -48.005  0.0000E+00  0.4000E+01
    -47.783  0.0000E+00  0.4000E+01
    -47.561  0.0000E+00  0.4000E+01
    -47.339  0.0000E+00  0.4000E+01
    -47.117  0.0000E+00  0.4000E+01
    -46.895  0.0000E+00  0.4000E+01
    -46.674  0.0000E+00  0.4000E+01
    -46.452  0.0000E+00  0.4000E+01
    -46.230  0.0000E+00  0.4000E+01
    -46.008  0.0000E+00  0.4000E+01
    -45.786  0.0000E+00  0.4000E+01
    -45.564  0.0000E+00  0.4000E+01
    -45.342  0.0000E+00  0.4000E+01
    -45.120  0.0000E+00  0.4000E+01
    -44.899  0.0000E+00  0.4000E+01
    -44.677  0.0000E+00  0.4000E+01
    -44.455  0.0000E+00  0.4000E+01
    -44.233  0.0000E+00  0.4000E+01
    -44.011  0.0000E+00  0.4000E+01
    -43.789  0.0000E+00  0.4000E+01
    -43.567  0.0000E+00  0.4000E+01
    -43.345  0.0000E+00  0.4000E+01
    -43.124  0.0000E+00  0.4000E+01
    -42.902  0.0000E+00  0.4000E+01
    -42.680  0.0000E+00  0.4000E+01
    -42.458  0.0000E+00  0.4000E+01
    -42.236  0.0000E+00  0.4000E+01
    -42.014  0.0000E+00  0.4000E+01
    -41.792  0.0000E+00  0.4000E+01
    -41.570  0.0000E+00  0.4000E+01
    -41.349  0.0000E+00  0.4000E+01
    -41.127  0.0000E+00  0.4000E+01
    -40.905  0.0000E+00  0.4000E+01
    -40.683  0.0000E+00  0.4000E+01
    -40.461  0.0000E+00  0.4000E+01
    -40.239  0.0000E+00  0.4000E+01
    -40.017  0.0000E+00  0.4000E+01
    -39.795  0.0000E+00  0.4000E+01
    -39.574  0.0000E+00  0.4000E+01
    -39.352  0.0000E+00  0.4000E+01
    -39.130  0.0000E+00  0.4000E+01
    -38.908  0.0000E+00  0.4000E+01
    -38.686  0.0000E+00  0.4000E+01
    -38.464  0.0000E+00  0.4000E+01
    -38.242  0.0000E+00  0.4000E+01
    -38.020  0.0000E+00  0.4000E+01
    -37.798  0.0000E+00  0.4000E+01
    -37.577  0.0000E+00  0.4000E+01
    -37.355  0.0000E+00  0.4000E+01
    -37.133  0.0000E+00  0.4000E+01
    -36.911  0.0000E+00  0.4000E+01
    -36.689  0.0000E+00  0.4000E+01
    -36.467  0.0000E+00  0.4000E+01
    -36.245  0.0000E+00  0.4000E+01
    -36.023  0.0000E+00  0.4000E+01
    -35.802  0.0000E+00  0.4000E+01
    -35.580  0.0000E+00  0.4000E+01
    -35.358  0.0000E+00  0.4000E+01
    -35.136  0.0000E+00  0.4000E+01
    -34.914  0.0000E+00  0.4000E+01
    -34.692  0.0000E+00  0.4000E+01
    -34.470  0.0000E+00  0.4000E+01
    -34.248  0.0000E+00  0.4000E+01
    -34.027  0.0000E+00  0.4000E+01
    -33.805  0.0000E+00  0.4000E+01
    -33.583  0.0000E+00  0.4000E+01
    -33.361  0.0000E+00  0.4000E+01
    -33.139  0.0000E+00  0.4000E+01
    -32.917  0.0000E+00  0.4000E+01
    -32.695  0.0000E+00  0.4000E+01
    -32.473  0.0000E+00  0.4000E+01
    -32.252  0.0000E+00  0.4000E+01
    -32.030  0.0000E+00  0.4000E+01
    -31.808  0.0000E+00  0.4000E+01
    -31.586  0.0000E+00  0.4000E+01
    -31.364  0.0000E+00  0.4000E+01
    -31.142  0.0000E+00  0.4000E+01
    -30.920  0.0000E+00  0.4000E+01
    -30.698  0.0000E+00  0.4000E+01
    -30.477  0.0000E+00  0.4000E+01
    -30.255  0.0000E+00  0.4000E+01
    -30.033  0.0000E+00  0.4000E+01
    -29.811  0.0000E+00  0.4000E+01
    -29.589  0.0000E+00  0.4000E+01
    -29.367  0.0000E+00  0.4000E+01
    -29.145  0.0000E+00  0.4000E+01
    -28.923  0.0000E+00  0.4000E+01
    -28.701  0.0000E+00  0.4000E+01
    -28.480  0.0000E+00  0.4000E+01
    -28.258  0.0000E+00  0.4000E+01
    -28.036  0.7711E+00  0.5860E+01
    -27.814  0.6674E+01  0.9270E+01
    -27.592  0.0000E+00  0.1600E+02
    -27.370  0.0000E+00  0.1600E+02
    -27.148  0.0000E+00  0.1600E+02
    -26.926  0.0000E+00  0.1600E+02
    -26.705  0.0000E+00  0.1600E+02
    -26.483  0.0000E+00  0.1600E+02
    -26.261  0.0000E+00  0.1600E+02
    -26.039  0.0000E+00  0.1600E+02
    -25.817  0.0000E+00  0.1600E+02
    -25.595  0.0000E+00  0.1600E+02
    -25.373  0.0000E+00  0.1600E+02
    -25.151  0.0000E+00  0.1600E+02
    -24.930  0.0000E+00  0.1600E+02
    -24.708  0.0000E+00  0.1600E+02
    -24.486  0.0000E+00  0.1600E+02
    -24.264  0.0000E+00  0.1600E+02
    -24.042  0.0000E+00  0.1600E+02
    -23.820  0.0000E+00  0.1600E+02
    -23.598  0.0000E+00  0.1600E+02
    -23.376  0.0000E+00  0.1600E+02
    -23.155  0.0000E+00  0.1600E+02
    -22.933  0.0000E+00  0.1600E+02
    -22.711  0.0000E+00  0.1600E+02
    -22.489  0.0000E+00  0.1600E+02
    -22.267  0.0000E+00  0.1600E+02
    -22.045  0.0000E+00  0.1600E+02
    -21.823  0.0000E+00  0.1600E+02
    -21.601  0.0000E+00  0.1600E+02
    -21.380  0.0000E+00  0.1600E+02
    -21.158  0.0000E+00  0.1600E+02
    -20.936  0.0000E+00  0.1600E+02
    -20.714  0.0000E+00  0.1600E+02
    -20.492  0.0000E+00  0.1600E+02
    -20.270  0.0000E+00  0.1600E+02
    -20.048  0.0000E+00  0.1600E+02
    -19.826  0.0000E+00  0.1600E+02
    -19.604  0.0000E+00  0.1600E+02
    -19.383  0.0000E+00  0.1600E+02
    -19.161  0.0000E+00  0.1600E+02
    -18.939  0.0000E+00  0.1600E+02
    -18.717  0.0000E+00  0.1600E+02
    -18.495  0.0000E+00  0.1600E+02
    -18.273  0.0000E+00  0.1600E+02
    -18.051  0.0000E+00  0.1600E+02
    -17.829  0.0000E+00  0.1600E+02
    -17.608  0.0000E+00  0.1600E+02
    -17.386  0.0000E+00  0.1600E+02
    -17.164  0.0000E+00  0.1600E+02
    -16.942  0.0000E+00  0.1600E+02
    -16.720  0.0000E+00  0.1600E+02
    -16.498  0.0000E+00  0.1600E+02
    -16.276  0.0000E+00  0.1600E+02
    -16.054  0.0000E+00  0.1600E+02
    -15.833  0.0000E+00  0.1600E+02
    -15.611  0.0000E+00  0.1600E+02
    -15.389  0.0000E+00  0.1600E+02
    -15.167  0.0000E+00  0.1600E+02
    -14.945  0.0000E+00  0.1600E+02
    -14.723  0.0000E+00  0.1600E+02
    -14.501  0.0000E+00  0.1600E+02
    -14.279  0.0000E+00  0.1600E+02
    -14.058  0.0000E+00  0.1600E+02
    -13.836  0.0000E+00  0.1600E+02
    -13.614  0.0000E+00  0.1600E+02
    -13.392  0.0000E+00  0.1600E+02
    -13.170  0.0000E+00  0.1600E+02
    -12.948  0.1894E+00  0.1604E+02
    -12.726  0.2455E+00  0.1627E+02
    -12.504  0.2118E+00  0.1639E+02
    -12.283  0.4071E+00  0.1656E+02
    -12.061  0.5882E+00  0.1743E+02
    -11.839  0.2484E+01  0.1815E+02
    -11.617  0.1989E+01  0.1950E+02
    -11.395  0.1988E+01  0.2060E+02
    -11.173  0.3761E+01  0.2278E+02
    -10.951  0.0000E+00  0.2400E+02
    -10.729  0.0000E+00  0.2400E+02
    -10.507  0.0000E+00  0.2400E+02
    -10.286  0.0000E+00  0.2400E+02
    -10.064  0.0000E+00  0.2400E+02
     -9.842  0.0000E+00  0.2400E+02
     -9.620  0.0000E+00  0.2400E+02
     -9.398  0.0000E+00  0.2400E+02
     -9.176  0.0000E+00  0.2400E+02
     -8.954  0.0000E+00  0.2400E+02
     -8.732  0.0000E+00  0.2400E+02
     -8.511  0.0000E+00  0.2400E+02
     -8.289  0.0000E+00  0.2400E+02
     -8.067  0.0000E+00  0.2400E+02
     -7.845  0.0000E+00  0.2400E+02
     -7.623  0.0000E+00  0.2400E+02
     -7.401  0.0000E+00  0.2400E+02
     -7.179  0.0000E+00  0.2400E+02
     -6.957  0.0000E+00  0.2400E+02
     -6.736  0.0000E+00  0.2400E+02
     -6.514  0.0000E+00  0.2400E+02
     -6.292  0.0000E+00  0.2400E+02
     -6.070  0.0000E+00  0.2400E+02
     -5.848  0.0000E+00  0.2400E+02
     -5.626  0.0000E+00  0.2400E+02
     -5.404  0.0000E+00  0.2400E+02
     -5.182  0.0000E+00  0.2400E+02
     -4.961  0.0000E+00  0.2400E+02
     -4.739  0.0000E+00  0.2400E+02
     -4.517  0.0000E+00  0.2400E+02
     -4.295  0.0000E+00  0.2400E+02
     -4.073  0.0000E+00  0.2400E+02
     -3.851  0.0000E+00  0.2400E+02
     -3.629  0.0000E+00  0.2400E+02
     -3.407  0.0000E+00  0.2400E+02
     -3.185  0.0000E+00  0.2400E+02
     -2.964  0.0000E+00  0.2400E+02
     -2.742  0.0000E+00  0.2400E+02
     -2.520  0.0000E+00  0.2400E+02
     -2.298  0.0000E+00  0.2400E+02
     -2.076  0.0000E+00  0.2400E+02
     -1.854  0.0000E+00  0.2400E+02
     -1.632  0.0000E+00  0.2400E+02
     -1.410  0.0000E+00  0.2400E+02
     -1.189  0.0000E+00  0.2400E+02
     -0.967  0.0000E+00  0.2400E+02
     -0.745  0.0000E+00  0.2400E+02
     -0.523  0.6707E-01  0.2401E+02
     -0.301  0.7791E+00  0.2434E+02
     -0.079  0.8171E+00  0.2490E+02
      0.143  0.6681E+00  0.2527E+02
      0.365  0.2350E+01  0.2654E+02
      0.586  0.1937E+01  0.2753E+02
      0.808  0.2129E+01  0.2863E+02
      1.030  0.1049E+01  0.2918E+02
      1.252  0.2933E+01  0.3044E+02
      1.474  0.3931E+01  0.3194E+02
      1.696  0.9189E+00  0.3294E+02
      1.918  0.1281E+01  0.3387E+02
      2.140  0.4390E+00  0.3499E+02
      2.361  0.7627E+00  0.3552E+02
      2.583  0.3929E+01  0.3707E+02
      2.805  0.1334E+01  0.3831E+02
      3.027  0.8925E+00  0.3912E+02
      3.249  0.1599E+01  0.4008E+02
      3.471  0.1582E+01  0.4133E+02
      3.693  0.1841E+01  0.4222E+02
      3.915  0.3006E+01  0.4360E+02
      4.136  0.1206E+01  0.4469E+02
      4.358  0.1094E+01  0.4574E+02
      4.580  0.2305E+01  0.4683E+02
      4.802  0.6031E+00  0.4748E+02
      5.024  0.1504E+00  0.4770E+02
      5.246  0.3011E+00  0.4784E+02
      5.468  0.0000E+00  0.4800E+02
      5.690  0.0000E+00  0.4800E+02
      5.912  0.0000E+00  0.4800E+02
      6.133  0.0000E+00  0.4800E+02
      6.355  0.0000E+00  0.4800E+02
      6.577  0.0000E+00  0.4800E+02
      6.799  0.0000E+00  0.4800E+02
      7.021  0.0000E+00  0.4800E+02
      7.243  0.2861E+01  0.4871E+02
      7.465  0.1457E+01  0.4941E+02
      7.687  0.1417E+01  0.5021E+02
      7.908  0.2576E+01  0.5195E+02
      8.130  0.1268E+01  0.5291E+02
      8.352  0.2184E+01  0.5395E+02
      8.574  0.2395E+01  0.5568E+02
      8.796  0.2166E+00  0.5596E+02
      9.018  0.0000E+00  0.5600E+02
      9.240  0.0000E+00  0.5600E+02
      9.462  0.0000E+00  0.5600E+02
      9.683  0.0000E+00  0.5600E+02
      9.905  0.0000E+00  0.5600E+02
     10.127  0.0000E+00  0.5600E+02
     10.349  0.0000E+00  0.5600E+02
     10.571  0.0000E+00  0.5600E+02
     10.793  0.0000E+00  0.5600E+02
     11.015  0.0000E+00  0.5600E+02
     11.237  0.0000E+00  0.5600E+02
     11.458  0.0000E+00  0.5600E+02
     11.680  0.0000E+00  0.5600E+02
     11.902  0.0000E+00  0.5600E+02
