       N       E                     dE             d eps       ncg     rms          rms(c)
DAV:   1    -0.439158426990E+02   -0.43916E+02   -0.59970E+02 14032   0.262E+02
DAV:   2    -0.528716157868E+02   -0.89558E+01   -0.89328E+01 10700   0.623E+01
DAV:   3    -0.531732560222E+02   -0.30164E+00   -0.30141E+00 13956   0.117E+01
DAV:   4    -0.531798498667E+02   -0.65938E-02   -0.65861E-02 12744   0.146E+00
DAV:   5    -0.531799605202E+02   -0.11065E-03   -0.11058E-03 13552   0.176E-01
DAV:   6    -0.531799621036E+02   -0.15834E-05   -0.15831E-05  8468   0.214E-02
   1 F= -.53179962E+02 E0= -.53179962E+02  d E =-.530905E-15
