TiO2                                    
   1.00000000000000     
     4.584000    0.000000    0.000000
     0.000000    4.584000    0.000000
     0.000000    0.000000    2.953000
   Ti   O 
     2     4
Direct
  0.000000 -0.000000  0.000000
  0.500000  0.500000  0.500000
  0.196237  0.803763  0.500000
  0.803763  0.196237  0.500000
  0.303763  0.303763 -0.000000
  0.696237  0.696237 -0.000000
 
   56   56   32
 0.92659844654E+03 0.90010481106E+03 0.82488621659E+03 0.71272515628E+03 0.58013788822E+03
 0.44453332225E+03 0.32049177076E+03 0.21736606782E+03 0.13880272016E+03 0.83858506318E+02
 0.48784473014E+02 0.28619300395E+02 0.18245716789E+02 0.13021399341E+02 0.99715992816E+01
 0.81508371964E+01 0.70119759129E+01 0.62128682964E+01 0.55657323893E+01 0.49867959860E+01
 0.44520761423E+01 0.39620677427E+01 0.35219657728E+01 0.31372103265E+01 0.28140419280E+01
 0.25577855420E+01 0.23714359946E+01 0.22574196308E+01 0.22188611016E+01 0.22574196308E+01
 0.23714359946E+01 0.25577855420E+01 0.28140419280E+01 0.31372103265E+01 0.35219657728E+01
 0.39620677427E+01 0.44520761423E+01 0.49867959860E+01 0.55657323893E+01 0.62128682964E+01
 0.70119759129E+01 0.81508371964E+01 0.99715992816E+01 0.13021399341E+02 0.18245716789E+02
 0.28619300395E+02 0.48784473014E+02 0.83858506318E+02 0.13880272016E+03 0.21736606782E+03
 0.32049177076E+03 0.44453332225E+03 0.58013788822E+03 0.71272515628E+03 0.82488621659E+03
 0.90010481106E+03 0.90010481106E+03 0.87444762003E+03 0.80159051656E+03 0.69302464894E+03
 0.56473043558E+03 0.43347315974E+03 0.31326912331E+03 0.21313999227E+03 0.13668062655E+03
 0.83104589149E+02 0.48894597700E+02 0.29279780640E+02 0.19244962230E+02 0.14188189032E+02
 0.11226285238E+02 0.94512836571E+01 0.83219711602E+01 0.74986426667E+01 0.67960260778E+01
 0.61345483618E+01 0.54959529458E+01 0.48871217447E+01 0.43194458511E+01 0.38037550014E+01
 0.33506121593E+01 0.29685996119E+01 0.26628366140E+01 0.24365205727E+01 0.22921831811E+01
 0.22299613210E+01 0.22463534280E+01 0.23365505543E+01 0.24970232898E+01 0.27247250776E+01
 0.30156065224E+01 0.33659118949E+01 0.37735784439E+01 0.42372912002E+01 0.47600992991E+01
 0.53675948106E+01 0.61413517937E+01 0.72618950551E+01 0.90588753458E+01 0.12062498458E+02
 0.17168419015E+02 0.27182681694E+02 0.46603232146E+02 0.80431445670E+02 0.13356021005E+03
 0.20972599945E+03 0.30992066747E+03 0.43062013453E+03 0.56268489872E+03 0.69184565291E+03
 0.80108429768E+03 0.87430649238E+03 0.82488621659E+03 0.80159051656E+03 0.73517980049E+03
 0.63620904238E+03 0.51924258775E+03 0.39948354905E+03 0.28962730267E+03 0.19790221677E+03
 0.12770344358E+03 0.78484588762E+02 0.47153012244E+02 0.29337482412E+02 0.20311874972E+02
 0.15698003827E+02 0.12968202366E+02 0.11318532590E+02 0.10232913516E+02 0.93869961026E+01
 0.86073201682E+01 0.78257086074E+01 0.70353440693E+01 0.62541884860E+01 0.55037684806E+01
 0.48033972419E+01 0.41702051687E+01 0.36178223803E+01 0.31551599807E+01 0.27876016399E+01
 0.25180047220E+01 0.23454166833E+01 0.22644407230E+01 0.22677780841E+01 0.23491162872E+01
 0.25032104299E+01 0.27252180358E+01 0.30120088148E+01 0.33631104363E+01 0.37793088957E+01
 0.42651535880E+01 0.48446845229E+01 0.55918275480E+01 0.66708465795E+01 0.83845013096E+01
 0.11223771234E+02 0.15969455103E+02 0.25020253398E+02 0.42549819217E+02 0.73234171246E+02
 0.12164573813E+03 0.19127025433E+03 0.28304192128E+03 0.39372520138E+03 0.51491583840E+03
 0.63349203508E+03 0.73380789946E+03 0.80108429768E+03 0.71272515628E+03 0.69302464894E+03
 0.63620904238E+03 0.55137315818E+03 0.45099452267E+03 0.34805242552E+03 0.25340261371E+03
 0.17417377332E+03 0.11345705735E+03 0.70979036858E+02 0.44169835140E+02 0.29177568808E+02
 0.21694295444E+02 0.17756420532E+02 0.15418047046E+02 0.13991195718E+02 0.12996003023E+02
 0.12131592259E+02 0.11243969541E+02 0.10284598703E+02 0.92668058777E+01 0.82282421963E+01
 0.72083185855E+01 0.62408436470E+01 0.53533101538E+01 0.45662326383E+01 0.38928805166E+01
 0.33407476176E+01 0.29127462781E+01 0.26066490474E+01 0.24149998288E+01 0.23274583303E+01
 0.23336730610E+01 0.24243810959E+01 0.25919436349E+01 0.28318992641E+01 0.31435461320E+01
 0.35281618098E+01 0.39902089636E+01 0.45498711494E+01 0.52693107406E+01 0.62893856945E+01
 0.78741749426E+01 0.10457007585E+02 0.14686634898E+02 0.22369684189E+02 0.37179515882E+02
 0.63303430287E+02 0.10480156286E+03 0.16473045038E+03 0.24388800344E+03 0.33945380634E+03
 0.44415814785E+03 0.54667362997E+03 0.63349203508E+03 0.69184565291E+03 0.58013788822E+03
 0.56473043558E+03 0.51924258775E+03 0.45099452267E+03 0.37001333098E+03 0.28673360523E+03
 0.20994516347E+03 0.14554633202E+03 0.96257336532E+02 0.62042527508E+02 0.40842260944E+02
 0.29345488855E+02 0.23729003209E+02 0.20682087181E+02 0.18928018705E+02 0.17856545003E+02
 0.17022838521E+02 0.16150113619E+02 0.15108753522E+02 0.13879660419E+02 0.12509931329E+02
 0.11072364504E+02 0.96391090958E+01 0.82704005306E+01 0.70116024461E+01 0.58930006122E+01
 0.49315025164E+01 0.41340612255E+01 0.35007002624E+01 0.30257023974E+01 0.26982431282E+01
 0.25040848802E+01 0.24278562339E+01 0.24548678724E+01 0.25728858260E+01 0.27741464008E+01
 0.30558417276E+01 0.34181809821E+01 0.38642695401E+01 0.44089874880E+01 0.51002675355E+01
 0.60510499025E+01 0.74789430887E+01 0.97472106172E+01 0.13391497049E+02 0.19570021766E+02
 0.31257929411E+02 0.52058597865E+02 0.85419960568E+02 0.13388469760E+03 0.19808351059E+03
 0.27568428425E+03 0.36076818615E+03 0.44415814785E+03 0.51491583840E+03 0.56268489872E+03
 0.44453332225E+03 0.43347315974E+03 0.39948354905E+03 0.34805242552E+03 0.28673360523E+03
 0.22344217432E+03 0.16494686489E+03 0.11592960884E+03 0.78689742660E+02 0.53327885995E+02
 0.38191956410E+02 0.30460304124E+02 0.26827454511E+02 0.24953506975E+02 0.24040449785E+02
 0.23517351084E+02 0.22957471838E+02 0.22098813554E+02 0.20837198867E+02 0.19194649235E+02
 0.17272454567E+02 0.15204133245E+02 0.13120625765E+02 0.11130504878E+02 0.93114647180E+01
 0.77094456719E+01 0.63435336576E+01 0.52142285965E+01 0.43115026321E+01 0.36200332458E+01
 0.31214969538E+01 0.27954371111E+01 0.26201551872E+01 0.25743634067E+01 0.26396942246E+01
 0.28032061637E+01 0.30580986888E+01 0.34019274447E+01 0.38353285247E+01 0.43671640532E+01
 0.50303689108E+01 0.59084014184E+01 0.71692415218E+01 0.91006110711E+01 0.12133212468E+02
 0.16943095811E+02 0.25563682581E+02 0.40976969222E+02 0.66011204504E+02 0.10270689227E+03
 0.15155011750E+03 0.21072213707E+03 0.27568428425E+03 0.33945380634E+03 0.39372520138E+03
 0.43062013453E+03 0.32049177076E+03 0.31326912331E+03 0.28962730267E+03 0.25340261371E+03
 0.20994516347E+03 0.16494686489E+03 0.12339050428E+03 0.88842873530E+02 0.63136486699E+02
 0.46370881256E+02 0.37161177890E+02 0.33097803220E+02 0.31542085339E+02 0.31226893098E+02
 0.31509597351E+02 0.31815561200E+02 0.31701750270E+02 0.30900574918E+02 0.29329530483E+02
 0.27064625812E+02 0.24288860262E+02 0.21234187626E+02 0.18131358304E+02 0.15173792269E+02
 0.12497147956E+02 0.10174854179E+02 0.82273958777E+01 0.66396583029E+01 0.53790918050E+01
 0.44089889162E+01 0.36946501455E+01 0.32039728457E+01 0.29061927692E+01 0.27719320912E+01
 0.27752557815E+01 0.28963020011E+01 0.31224402130E+01 0.34469605390E+01 0.38669742792E+01
 0.43851533836E+01 0.50201520856E+01 0.58271487124E+01 0.69257935054E+01 0.85295027555E+01
 0.10965523938E+02 0.14674439578E+02 0.20689831165E+02 0.31272654055E+02 0.48689812990E+02
 0.74559358230E+02 0.10928441237E+03 0.15155011750E+03 0.19808351059E+03 0.24388800344E+03
 0.28304192128E+03 0.30992066747E+03 0.21736606782E+03 0.21313999227E+03 0.19790221677E+03
 0.17417377332E+03 0.14554633202E+03 0.11592960884E+03 0.88842873530E+02 0.66875766176E+02
 0.51362339349E+02 0.42281155366E+02 0.38399729281E+02 0.37681370886E+02 0.38538431919E+02
 0.40280749979E+02 0.42235596393E+02 0.43798184696E+02 0.44442332933E+02 0.43806315381E+02
 0.41789912151E+02 0.38562449019E+02 0.34479530102E+02 0.29940137988E+02 0.25294205214E+02
 0.20867857528E+02 0.16896427932E+02 0.13503126892E+02 0.10712686049E+02 0.84831783292E+01
 0.67416006936E+01 0.54113617706E+01 0.44262090657E+01 0.37321995935E+01 0.32839400570E+01
 0.30412746903E+01 0.29690054472E+01 0.30386828912E+01 0.32301166886E+01 0.35307532168E+01
 0.39331566104E+01 0.44339755419E+01 0.50393854252E+01 0.57796765274E+01 0.67311039986E+01
 0.80395568815E+01 0.99377387962E+01 0.12744775598E+02 0.16894454914E+02 0.23656676905E+02
 0.34806963924E+02 0.51644245135E+02 0.74559358230E+02 0.10270689227E+03 0.13388469760E+03
 0.16473045038E+03 0.19127025433E+03 0.20972599945E+03 0.13880272016E+03 0.13668062655E+03
 0.12770344358E+03 0.11345705735E+03 0.96257336532E+02 0.78689742660E+02 0.63136486699E+02
 0.51362339349E+02 0.44214920116E+02 0.41501600037E+02 0.42096781185E+02 0.44635252809E+02
 0.48475827676E+02 0.53132911927E+02 0.57906829417E+02 0.61861840422E+02 0.64078222392E+02
 0.63913819745E+02 0.61182260769E+02 0.56193651977E+02 0.49650249605E+02 0.42428221926E+02
 0.35307291388E+02 0.28735212704E+02 0.22887005078E+02 0.17945528949E+02 0.13952111044E+02
 0.10828469027E+02 0.84393441929E+01 0.66432764828E+01 0.53204299104E+01 0.43790333509E+01
 0.37495213899E+01 0.33761876179E+01 0.32121839284E+01 0.32188002584E+01 0.33667105339E+01
 0.36360259810E+01 0.40137431846E+01 0.44907538401E+01 0.50631184656E+01 0.57410274191E+01
 0.65647511783E+01 0.76232453752E+01 0.90688067815E+01 0.11119138693E+02 0.14038523431E+02
 0.18228472416E+02 0.24795672752E+02 0.34806963924E+02 0.48689812990E+02 0.66011204504E+02
 0.85419960568E+02 0.10480156286E+03 0.12164573813E+03 0.13356021005E+03 0.83858506318E+02
 0.83104589149E+02 0.78484588762E+02 0.70979036858E+02 0.62042527508E+02 0.53327885995E+02
 0.46370881256E+02 0.42281155366E+02 0.41501600037E+02 0.43709746424E+02 0.48127708509E+02
 0.54464555116E+02 0.62670676505E+02 0.72132535977E+02 0.81612452548E+02 0.89533692198E+02
 0.94385093129E+02 0.95111979398E+02 0.91382078693E+02 0.83665789494E+02 0.73116940414E+02
 0.61276986401E+02 0.49666913499E+02 0.39378848601E+02 0.30805292285E+02 0.23736513902E+02
 0.18091198282E+02 0.13754269061E+02 0.10507166945E+02 0.81144738577E+01 0.63749858290E+01
 0.51376079723E+01 0.42947876118E+01 0.37679120490E+01 0.34950719401E+01 0.34255384849E+01
 0.35194770907E+01 0.37483099159E+01 0.40924251178E+01 0.45371013104E+01 0.50706715587E+01
 0.56885396336E+01 0.64036156402E+01 0.72604279820E+01 0.83476442868E+01 0.98020029981E+01
 0.11796913607E+02 0.14513195357E+02 0.18228472416E+02 0.23656676905E+02 0.31272654055E+02
 0.40976969222E+02 0.52058597865E+02 0.63303430287E+02 0.73234171246E+02 0.80431445670E+02
 0.48784473014E+02 0.48894597700E+02 0.47153012244E+02 0.44169835140E+02 0.40842260944E+02
 0.38191956410E+02 0.37161177890E+02 0.38399729281E+02 0.42096781185E+02 0.48127708509E+02
 0.56683336092E+02 0.68334915968E+02 0.82946778114E+02 0.99342703745E+02 0.11549330992E+03
 0.12897291267E+03 0.13752871348E+03 0.13959643768E+03 0.13464742926E+03 0.12331102620E+03
 0.10725229315E+03 0.88811519994E+02 0.70459122768E+02 0.54192646228E+02 0.41062358878E+02
 0.31001612508E+02 0.23213643928E+02 0.17304148997E+02 0.12959096377E+02 0.98213050834E+01
 0.75780604916E+01 0.59940399558E+01 0.49066629722E+01 0.42047276261E+01 0.38067440243E+01
 0.36480637901E+01 0.36772259973E+01 0.38558574727E+01 0.41567655361E+01 0.45595652020E+01
 0.50468554267E+01 0.56042528987E+01 0.62258978134E+01 0.69245240560E+01 0.77421110209E+01
 0.87549980464E+01 0.10068162267E+02 0.11796913607E+02 0.14038523431E+02 0.16894454914E+02
 0.20689831165E+02 0.25563682581E+02 0.31257929411E+02 0.37179515882E+02 0.42549819217E+02
 0.46603232146E+02 0.28619300395E+02 0.29279780640E+02 0.29337482412E+02 0.29177568808E+02
 0.29345488855E+02 0.30460304124E+02 0.33097803220E+02 0.37681370886E+02 0.44635252809E+02
 0.54464555116E+02 0.68334915968E+02 0.87004203808E+02 0.10990679558E+03 0.13507715273E+03
 0.15950909057E+03 0.17980567282E+03 0.19290310820E+03 0.19668792454E+03 0.19040762620E+03
 0.17483191222E+03 0.15213922137E+03 0.12551475214E+03 0.98491961712E+02 0.74160623072E+02
 0.54462252876E+02 0.39822326911E+02 0.29273038978E+02 0.21446800002E+02 0.15767175026E+02
 0.11736634568E+02 0.89042428370E+01 0.69261493651E+01 0.55670107105E+01 0.46722769358E+01
 0.41356405241E+01 0.38765434023E+01 0.38310955208E+01 0.39504130341E+01 0.41989981732E+01
 0.45506452444E+01 0.49836085697E+01 0.54777459409E+01 0.60159162873E+01 0.65904049868E+01
 0.72117430661E+01 0.79144146606E+01 0.87549980464E+01 0.98020029981E+01 0.11119138693E+02
 0.12744775598E+02 0.14674439578E+02 0.16943095811E+02 0.19570021766E+02 0.22369684189E+02
 0.25020253398E+02 0.27182681694E+02 0.18245716789E+02 0.19244962230E+02 0.20311874972E+02
 0.21694295444E+02 0.23729003209E+02 0.26827454511E+02 0.31542085339E+02 0.38538431919E+02
 0.48475827676E+02 0.62670676505E+02 0.82946778114E+02 0.10990679558E+03 0.14237226509E+03
 0.17743984697E+03 0.21104554833E+03 0.23880389669E+03 0.25685764326E+03 0.26256513907E+03
 0.25495395771E+03 0.23491213772E+03 0.20508720170E+03 0.16946408542E+03 0.13263106426E+03
 0.98834656408E+02 0.71051856990E+02 0.50390689367E+02 0.36066798723E+02 0.26039684825E+02
 0.18840870318E+02 0.13799501364E+02 0.10310135029E+02 0.79020445609E+01 0.62523915739E+01
 0.51536461844E+01 0.44697286072E+01 0.41023952998E+01 0.39749180337E+01 0.40276672273E+01
 0.42165014582E+01 0.45092675123E+01 0.48806649139E+01 0.53075391571E+01 0.57671928820E+01
 0.62406530934E+01 0.67195333386E+01 0.72117430661E+01 0.77421110209E+01 0.83476442868E+01
 0.90688067815E+01 0.99377387962E+01 0.10965523938E+02 0.12133212468E+02 0.13391497049E+02
 0.14686634898E+02 0.15969455103E+02 0.17168419015E+02 0.13021399341E+02 0.14188189032E+02
 0.15698003827E+02 0.17756420532E+02 0.20682087181E+02 0.24953506975E+02 0.31226893098E+02
 0.40280749979E+02 0.53132911927E+02 0.72132535977E+02 0.99342703745E+02 0.13507715273E+03
 0.17743984697E+03 0.22254973310E+03 0.26531557938E+03 0.30043902878E+03 0.32335457763E+03
 0.33096068138E+03 0.32210075977E+03 0.29777146909E+03 0.26102438878E+03 0.21653203786E+03
 0.16981604210E+03 0.12620481711E+03 0.89724392886E+02 0.62267442843E+02 0.43384084884E+02
 0.30813102814E+02 0.22016329189E+02 0.15909365166E+02 0.11732104211E+02 0.88798802091E+01
 0.69346694674E+01 0.56301283798E+01 0.47971655437E+01 0.43188314790E+01 0.41056683057E+01
 0.40875845011E+01 0.42119103628E+01 0.44405874595E+01 0.47451335044E+01 0.51009327841E+01
 0.54835262607E+01 0.58693704394E+01 0.62406530934E+01 0.65904049868E+01 0.69245240560E+01
 0.72604279820E+01 0.76232453752E+01 0.80395568815E+01 0.85295027555E+01 0.91006110711E+01
 0.97472106172E+01 0.10457007585E+02 0.11223771234E+02 0.12062498458E+02 0.99715992816E+01
 0.11226285238E+02 0.12968202366E+02 0.15418047046E+02 0.18928018705E+02 0.24040449785E+02
 0.31509597351E+02 0.42235596393E+02 0.57906829417E+02 0.81612452548E+02 0.11549330992E+03
 0.15950909057E+03 0.21104554833E+03 0.26531557938E+03 0.31632381757E+03 0.35799815660E+03
 0.38519067957E+03 0.39443785662E+03 0.38446009233E+03 0.35637122267E+03 0.31356181691E+03
 0.26124628366E+03 0.20568014187E+03 0.15307977752E+03 0.10839636676E+03 0.74288852186E+02
 0.50719461985E+02 0.35396013355E+02 0.25063903141E+02 0.17929756469E+02 0.13088792617E+02
 0.98101983983E+01 0.75833527265E+01 0.60834163192E+01 0.51081647425E+01 0.45222849931E+01
 0.42243885107E+01 0.41347829396E+01 0.41929266212E+01 0.43552354033E+01 0.45902998821E+01
 0.48727515468E+01 0.51784594302E+01 0.54835262607E+01 0.57671928820E+01 0.60159162873E+01
 0.62258978134E+01 0.64036156402E+01 0.65647511783E+01 0.67311039986E+01 0.69257935054E+01
 0.71692415218E+01 0.74789430887E+01 0.78741749426E+01 0.83845013096E+01 0.90588753458E+01
 0.81508371964E+01 0.94512836571E+01 0.11318532590E+02 0.13991195718E+02 0.17856545003E+02
 0.23517351084E+02 0.31815561200E+02 0.43798184696E+02 0.61861840422E+02 0.89533692198E+02
 0.12897291267E+03 0.17980567282E+03 0.23880389669E+03 0.30043902878E+03 0.35799815660E+03
 0.40481118491E+03 0.43529609784E+03 0.44574277780E+03 0.43482366885E+03 0.40378706239E+03
 0.35629922529E+03 0.29795981865E+03 0.23552235268E+03 0.17582301212E+03 0.12450487120E+03
 0.84854648568E+02 0.57229129941E+02 0.39393051916E+02 0.27717094333E+02 0.19703655093E+02
 0.14289564275E+02 0.10641017261E+02 0.81690479916E+01 0.64981010379E+01 0.53967326026E+01
 0.47134368931E+01 0.43365479888E+01 0.41782793131E+01 0.41714917985E+01 0.42679367324E+01
 0.44336979340E+01 0.46429553939E+01 0.48727515468E+01 0.51009327841E+01 0.53075391571E+01
 0.54777459409E+01 0.56042528987E+01 0.56885396336E+01 0.57410274191E+01 0.57796765274E+01
 0.58271487124E+01 0.59084014184E+01 0.60510499025E+01 0.62893856945E+01 0.66708465795E+01
 0.72618950551E+01 0.70119759129E+01 0.83219711602E+01 0.10232913516E+02 0.12996003023E+02
 0.17022838521E+02 0.22957471838E+02 0.31701750270E+02 0.44442332933E+02 0.64078222392E+02
 0.94385093129E+02 0.13752871348E+03 0.19290310820E+03 0.25685764326E+03 0.32335457763E+03
 0.38519067957E+03 0.43529609784E+03 0.46781837775E+03 0.47892593913E+03 0.46731751997E+03
 0.43438231475E+03 0.38398766507E+03 0.32195755072E+03 0.25530270118E+03 0.19118482339E+03
 0.13564317765E+03 0.92362736039E+02 0.61987087568E+02 0.42367918168E+02 0.29718097771E+02
 0.21078665446E+02 0.15247876588E+02 0.11324769145E+02 0.86669842044E+01 0.68633136935E+01
 0.56611685396E+01 0.48969975212E+01 0.44514067532E+01 0.42306176535E+01 0.41627122047E+01
 0.41961033055E+01 0.42950986633E+01 0.44336979340E+01 0.45902998821E+01 0.47451335044E+01
 0.48806649139E+01 0.49836085697E+01 0.50468554267E+01 0.50706715587E+01 0.50631184656E+01
 0.50393854252E+01 0.50201520856E+01 0.50303689108E+01 0.51002675355E+01 0.52693107406E+01
 0.55918275480E+01 0.61413517937E+01 0.62128682964E+01 0.74986426667E+01 0.93869961026E+01
 0.12131592259E+02 0.16150113619E+02 0.22098813554E+02 0.30900574918E+02 0.43806315381E+02
 0.63913819745E+02 0.95111979398E+02 0.13959643768E+03 0.19668792454E+03 0.26256513907E+03
 0.33096068138E+03 0.39443785662E+03 0.44574277780E+03 0.47892593913E+03 0.49015832034E+03
 0.47822258776E+03 0.44462779778E+03 0.39334503705E+03 0.33025785132E+03 0.26240585936E+03
 0.19699033509E+03 0.14013325860E+03 0.95639996756E+02 0.64271483923E+02 0.43947207267E+02
 0.30868189574E+02 0.21935919937E+02 0.15896666816E+02 0.11825989611E+02 0.90606382919E+01
 0.71743164706E+01 0.59046749987E+01 0.50818967894E+01 0.45821162325E+01 0.43080387009E+01
 0.41850789778E+01 0.41599167668E+01 0.41961033055E+01 0.42679367324E+01 0.43552354033E+01
 0.44405874595E+01 0.45092675123E+01 0.45506452444E+01 0.45595652020E+01 0.45371013104E+01
 0.44907538401E+01 0.44339755419E+01 0.43851533836E+01 0.43671640532E+01 0.44089874880E+01
 0.45498711494E+01 0.48446845229E+01 0.53675948106E+01 0.55657323893E+01 0.67960260778E+01
 0.86073201682E+01 0.11243969541E+02 0.15108753522E+02 0.20837198867E+02 0.29329530483E+02
 0.41789912151E+02 0.61182260769E+02 0.91382078693E+02 0.13464742926E+03 0.19040762620E+03
 0.25495395771E+03 0.32210075977E+03 0.38446009233E+03 0.43482366885E+03 0.46731751997E+03
 0.47822258776E+03 0.46643418171E+03 0.43352891352E+03 0.38346425101E+03 0.32201897704E+03
 0.25605186939E+03 0.19254111265E+03 0.13739013762E+03 0.94240363412E+02 0.63779993759E+02
 0.43954038285E+02 0.31068787443E+02 0.22214665121E+02 0.16201943016E+02 0.12128628339E+02
 0.93459754964E+01 0.74355184737E+01 0.61380250136E+01 0.52839322024E+01 0.47484288832E+01
 0.44332442673E+01 0.42632541432E+01 0.41850789778E+01 0.41627122047E+01 0.41714917985E+01
 0.41929266212E+01 0.42119103628E+01 0.42165014582E+01 0.41989981732E+01 0.41567655361E+01
 0.40924251178E+01 0.40137431846E+01 0.39331566104E+01 0.38669742792E+01 0.38353285247E+01
 0.38642695401E+01 0.39902089636E+01 0.42651535880E+01 0.47600992991E+01 0.49867959860E+01
 0.61345483618E+01 0.78257086074E+01 0.10284598703E+02 0.13879660419E+02 0.19194649235E+02
 0.27064625812E+02 0.38562449019E+02 0.56193651977E+02 0.83665789494E+02 0.12331102620E+03
 0.17483191222E+03 0.23491213772E+03 0.29777146909E+03 0.35637122267E+03 0.40378706239E+03
 0.43438231475E+03 0.44462779778E+03 0.43352891352E+03 0.40265572106E+03 0.35582819541E+03
 0.29856322578E+03 0.23734593096E+03 0.17869273855E+03 0.12801615920E+03 0.88538640064E+02
 0.60708307029E+02 0.42463590063E+02 0.30341878562E+02 0.21925662696E+02 0.16171228458E+02
 0.12241755531E+02 0.95360626733E+01 0.76649402191E+01 0.63842583000E+01 0.55307249954E+01
 0.49818042712E+01 0.46405505018E+01 0.44332442673E+01 0.43080387009E+01 0.42306176535E+01
 0.41782793131E+01 0.41347829396E+01 0.40875845011E+01 0.40276672273E+01 0.39504130341E+01
 0.38558574727E+01 0.37483099159E+01 0.36360259810E+01 0.35307532168E+01 0.34469605390E+01
 0.34019274447E+01 0.34181809821E+01 0.35281618098E+01 0.37793088957E+01 0.42372912002E+01
 0.44520761423E+01 0.54959529458E+01 0.70353440693E+01 0.92668058777E+01 0.12509931329E+02
 0.17272454567E+02 0.24288860262E+02 0.34479530102E+02 0.49650249605E+02 0.73116940414E+02
 0.10725229315E+03 0.15213922137E+03 0.20508720170E+03 0.26102438878E+03 0.31356181691E+03
 0.35629922529E+03 0.38398766507E+03 0.39334503705E+03 0.38346425101E+03 0.35582819541E+03
 0.31400082433E+03 0.26308900156E+03 0.20902244198E+03 0.15763939890E+03 0.11363220775E+03
 0.79610119191E+02 0.55674240875E+02 0.39762915103E+02 0.28824882984E+02 0.21150197945E+02
 0.15855172796E+02 0.12202752108E+02 0.96652419346E+01 0.78990313224E+01 0.66839369547E+01
 0.58672804292E+01 0.53311789214E+01 0.49818042712E+01 0.47484288832E+01 0.45821162325E+01
 0.44514067532E+01 0.43365479888E+01 0.42243885107E+01 0.41056683057E+01 0.39749180337E+01
 0.38310955208E+01 0.36772259973E+01 0.35194770907E+01 0.33667105339E+01 0.32301166886E+01
 0.31224402130E+01 0.30580986888E+01 0.30558417276E+01 0.31435461320E+01 0.33631104363E+01
 0.37735784439E+01 0.39620677427E+01 0.48871217447E+01 0.62541884860E+01 0.82282421963E+01
 0.11072364504E+02 0.15204133245E+02 0.21234187626E+02 0.29940137988E+02 0.42428221926E+02
 0.61276986401E+02 0.88811519994E+02 0.12551475214E+03 0.16946408542E+03 0.21653203786E+03
 0.26124628366E+03 0.29795981865E+03 0.32195755072E+03 0.33025785132E+03 0.32201897704E+03
 0.29856322578E+03 0.26308900156E+03 0.22015092129E+03 0.17495107149E+03 0.13246365816E+03
 0.96495249764E+02 0.68935755203E+02 0.49516707172E+02 0.36234306586E+02 0.26742325822E+02
 0.20025869379E+02 0.15342549386E+02 0.12077517785E+02 0.97919062716E+01 0.81965101983E+01
 0.70993405675E+01 0.63602747059E+01 0.58672804292E+01 0.55307249954E+01 0.52839322024E+01
 0.50818967894E+01 0.48969975212E+01 0.47134368931E+01 0.45222849931E+01 0.43188314790E+01
 0.41023952998E+01 0.38765434023E+01 0.36480637901E+01 0.34255384849E+01 0.32188002584E+01
 0.30386828912E+01 0.28963020011E+01 0.28032061637E+01 0.27741464008E+01 0.28318992641E+01
 0.30120088148E+01 0.33659118949E+01 0.35219657728E+01 0.43194458511E+01 0.55037684806E+01
 0.72083185855E+01 0.96391090958E+01 0.13120625765E+02 0.18131358304E+02 0.25294205214E+02
 0.35307291388E+02 0.49666913499E+02 0.70459122768E+02 0.98491961712E+02 0.13263106426E+03
 0.16981604210E+03 0.20568014187E+03 0.23552235268E+03 0.25530270118E+03 0.26240585936E+03
 0.25605186939E+03 0.23734593096E+03 0.20902244198E+03 0.17495107149E+03 0.13945716133E+03
 0.10651909896E+03 0.78980767629E+02 0.58010768232E+02 0.43035289235E+02 0.32261685427E+02
 0.24362856340E+02 0.18723701912E+02 0.14750007435E+02 0.11957087641E+02 0.99982771530E+01
 0.86393027965E+01 0.77157046957E+01 0.70993405675E+01 0.66839369547E+01 0.63842583000E+01
 0.61380250136E+01 0.59046749987E+01 0.56611685396E+01 0.53967326026E+01 0.51081647425E+01
 0.47971655437E+01 0.44697286072E+01 0.41356405241E+01 0.38067440243E+01 0.34950719401E+01
 0.32121839284E+01 0.29690054472E+01 0.27752557815E+01 0.26396942246E+01 0.25728858260E+01
 0.25919436349E+01 0.27252180358E+01 0.30156065224E+01 0.31372103265E+01 0.38037550014E+01
 0.48033972419E+01 0.62408436470E+01 0.82704005306E+01 0.11130504878E+02 0.15173792269E+02
 0.20867857528E+02 0.28735212704E+02 0.39378848601E+02 0.54192646228E+02 0.74160623072E+02
 0.98834656408E+02 0.12620481711E+03 0.15307977752E+03 0.17582301212E+03 0.19118482339E+03
 0.19699033509E+03 0.19254111265E+03 0.17869273855E+03 0.15763939890E+03 0.13246365816E+03
 0.10651909896E+03 0.82741659671E+02 0.63041260135E+02 0.47962785699E+02 0.36757132874E+02
 0.28247269790E+02 0.21953546789E+02 0.17422663790E+02 0.14208504197E+02 0.11950236528E+02
 0.10385874295E+02 0.93294510158E+01 0.86393027965E+01 0.81965101983E+01 0.78990313224E+01
 0.76649402191E+01 0.74355184737E+01 0.71743164706E+01 0.68633136935E+01 0.64981010379E+01
 0.60834163192E+01 0.56301283798E+01 0.51536461844E+01 0.46722769358E+01 0.42047276261E+01
 0.37679120490E+01 0.33761876179E+01 0.30412746903E+01 0.27719320912E+01 0.25743634067E+01
 0.24548678724E+01 0.24243810959E+01 0.25032104299E+01 0.27247250776E+01 0.28140419280E+01
 0.33506121593E+01 0.41702051687E+01 0.53533101538E+01 0.70116024461E+01 0.93114647180E+01
 0.12497147956E+02 0.16896427932E+02 0.22887005078E+02 0.30805292285E+02 0.41062358878E+02
 0.54462252876E+02 0.71051856990E+02 0.89724392886E+02 0.10839636676E+03 0.12450487120E+03
 0.13564317765E+03 0.14013325860E+03 0.13739013762E+03 0.12801615920E+03 0.11363220775E+03
 0.96495249764E+02 0.78980767629E+02 0.63041260135E+02 0.49782457872E+02 0.39294457635E+02
 0.30966707686E+02 0.24528068229E+02 0.19742959602E+02 0.16287529291E+02 0.13849338077E+02
 0.12173978408E+02 0.11069069407E+02 0.10385874295E+02 0.99982771530E+01 0.97919062716E+01
 0.96652419346E+01 0.95360626733E+01 0.93459754964E+01 0.90606382919E+01 0.86669842044E+01
 0.81690479916E+01 0.75833527265E+01 0.69346694674E+01 0.62523915739E+01 0.55670107105E+01
 0.49066629722E+01 0.42947876118E+01 0.37495213899E+01 0.32839400570E+01 0.29061927692E+01
 0.26201551872E+01 0.24278562339E+01 0.23336730610E+01 0.23491162872E+01 0.24970232898E+01
 0.25577855420E+01 0.29685996119E+01 0.36178223803E+01 0.45662326383E+01 0.58930006122E+01
 0.77094456719E+01 0.10174854179E+02 0.13503126892E+02 0.17945528949E+02 0.23736513902E+02
 0.31001612508E+02 0.39822326911E+02 0.50390689367E+02 0.62267442843E+02 0.74288852186E+02
 0.84854648568E+02 0.92362736039E+02 0.95639996756E+02 0.94240363412E+02 0.88538640064E+02
 0.79610119191E+02 0.68935755203E+02 0.58010768232E+02 0.47962785699E+02 0.39294457635E+02
 0.31946702779E+02 0.25964190617E+02 0.21333856277E+02 0.17900436126E+02 0.15454763602E+02
 0.13794065639E+02 0.12747333165E+02 0.12173978408E+02 0.11950236528E+02 0.11957087641E+02
 0.12077517785E+02 0.12202752108E+02 0.12241755531E+02 0.12128628339E+02 0.11825989611E+02
 0.11324769145E+02 0.10641017261E+02 0.98101983983E+01 0.88798802091E+01 0.79020445609E+01
 0.69261493651E+01 0.59940399558E+01 0.51376079723E+01 0.43790333509E+01 0.37321995935E+01
 0.32039728457E+01 0.27954371111E+01 0.25040848802E+01 0.23274583303E+01 0.22677780841E+01
 0.23365505543E+01 0.23714359946E+01 0.26628366140E+01 0.31551599807E+01 0.38928805166E+01
 0.49315025164E+01 0.63435336576E+01 0.82273958777E+01 0.10712686049E+02 0.13952111044E+02
 0.18091198282E+02 0.23213643928E+02 0.29273038978E+02 0.36066798723E+02 0.43384084884E+02
 0.50719461985E+02 0.57229129941E+02 0.61987087568E+02 0.64271483923E+02 0.63779993759E+02
 0.60708307029E+02 0.55674240875E+02 0.49516707172E+02 0.43035289235E+02 0.36757132874E+02
 0.30966707686E+02 0.25964190617E+02 0.21901301055E+02 0.18784879795E+02 0.16533244423E+02
 0.15028902740E+02 0.14152413351E+02 0.13794065639E+02 0.13849338077E+02 0.14208504197E+02
 0.14750007435E+02 0.15342549386E+02 0.15855172796E+02 0.16171228458E+02 0.16201943016E+02
 0.15896666816E+02 0.15247876588E+02 0.14289564275E+02 0.13088792617E+02 0.11732104211E+02
 0.10310135029E+02 0.89042428370E+01 0.75780604916E+01 0.63749858290E+01 0.53204299104E+01
 0.44262090657E+01 0.36946501455E+01 0.31214969538E+01 0.26982431282E+01 0.24149998288E+01
 0.22644407230E+01 0.22463534280E+01 0.22574196308E+01 0.24365205727E+01 0.27876016399E+01
 0.33407476176E+01 0.41340612255E+01 0.52142285965E+01 0.66396583029E+01 0.84831783292E+01
 0.10828469027E+02 0.13754269061E+02 0.17304148997E+02 0.21446800002E+02 0.26039684825E+02
 0.30813102814E+02 0.35396013355E+02 0.39393051916E+02 0.42367918168E+02 0.43947207267E+02
 0.43954038285E+02 0.42463590063E+02 0.39762915103E+02 0.36234306585E+02 0.32261685427E+02
 0.28247269790E+02 0.24528068229E+02 0.21333856277E+02 0.18784879795E+02 0.16913725396E+02
 0.15697793253E+02 0.15088625130E+02 0.15028902740E+02 0.15454763602E+02 0.16287529291E+02
 0.17422663790E+02 0.18723701912E+02 0.20025869379E+02 0.21150197945E+02 0.21925662696E+02
 0.22214665121E+02 0.21935919937E+02 0.21078665446E+02 0.19703655093E+02 0.17929756469E+02
 0.15909365166E+02 0.13799501364E+02 0.11736634568E+02 0.98213050834E+01 0.81144738577E+01
 0.66432764828E+01 0.54113617706E+01 0.44089889162E+01 0.36200332458E+01 0.30257023974E+01
 0.26066490474E+01 0.23454166833E+01 0.22299613210E+01 0.22188611016E+01 0.22921831811E+01
 0.25180047220E+01 0.29127462781E+01 0.35007002624E+01 0.43115026321E+01 0.53790918050E+01
 0.67416006936E+01 0.84393441929E+01 0.10507166945E+02 0.12959096377E+02 0.15767175026E+02
 0.18840870318E+02 0.22016329189E+02 0.25063903141E+02 0.27717094333E+02 0.29718097771E+02
 0.30868189574E+02 0.31068787443E+02 0.30341878562E+02 0.28824882984E+02 0.26742325822E+02
 0.24362856340E+02 0.21953546789E+02 0.19742959602E+02 0.17900436126E+02 0.16533244423E+02
 0.15697793253E+02 0.15417396943E+02 0.15697793253E+02 0.16533244423E+02 0.17900436126E+02
 0.19742959602E+02 0.21953546789E+02 0.24362856340E+02 0.26742325822E+02 0.28824882984E+02
 0.30341878562E+02 0.31068787443E+02 0.30868189574E+02 0.29718097771E+02 0.27717094333E+02
 0.25063903141E+02 0.22016329189E+02 0.18840870318E+02 0.15767175026E+02 0.12959096377E+02
 0.10507166945E+02 0.84393441929E+01 0.67416006936E+01 0.53790918050E+01 0.43115026321E+01
 0.35007002624E+01 0.29127462781E+01 0.25180047220E+01 0.22921831811E+01 0.22574196308E+01