 vasp.6.2.0 18Jan21 (build Oct 14 2021 17:49:53) complex                        
  
 executed on             LinuxIFC date 2022.04.02  12:21:36
 running on    1 total cores
 distrk:  each k-point on    1 cores,    1 groups
 distr:  one band on NCORE=   1 cores,    1 groups


--------------------------------------------------------------------------------------------------------


 INCAR:
   SYSTEM = TiO2
   ISTART = 0
   ICHARGE = 2
   ISMEAR = 0
   SIGMA = 0.01
   LOUT = 10
   ENCUT = 500
   EDIFF = 0.1E-04
   EDIFFG = -0.01
   IBRION = 1
   ISIF = 0
   NSW = 15

 POTCAR:    PAW_PBE Ti_sv 26Sep2005               
 POTCAR:   PAW_PBE O_s 07Sep2000                  
 POTCAR:    PAW_PBE Ti_sv 26Sep2005               
   SHA256 =  4d747badb5a5ea28d858fbac70885b3f8929d6fd9e5b0dbe1ecb9878dc164da1 Ti_sv/POTCAR          
   COPYR  = (c) Copyright 26Sep2005 Georg Kresse                                                    
   COPYR  = This file is part of the software VASP. Any use, copying, and all other rights are regul
   COPYR  = If you do not have a valid VASP license, you may not use, copy or distribute this file. 
   VRHFIN =Ti: 3p4s3d                                                                               
   LEXCH  = PE                                                                                      
   EATOM  =  1588.0892 eV,  116.7213 Ry                                                             
                                                                                                    
   TITEL  = PAW_PBE Ti_sv 26Sep2005                                                                 
   LULTRA =        F    use ultrasoft PP ?                                                          
   IUNSCR =        1    unscreen: 0-lin 1-nonlin 2-no                                               
   RPACOR =    2.000    partial core radius                                                         
   POMASS =   47.880; ZVAL   =   12.000    mass and valenz                                          
   RCORE  =    2.300    outmost cutoff radius                                                       
   RWIGS  =    2.300; RWIGS  =    1.217    wigner-seitz radius (au A)                               
   ENMAX  =  274.610; ENMIN  =  205.957 eV                                                          
   ICORE  =        3    local potential                                                             
   LCOR   =        T    correct aug charges                                                         
   LPAW   =        T    paw PP                                                                      
   EAUG   =  482.848                                                                                
   RMAX   =    2.348    core radius for proj-oper                                                   
   RAUG   =    1.300    factor for augmentation sphere                                              
   RDEP   =    2.381    radius for radial grids                                                     
   RDEPT  =    1.930    core radius for aug-charge                                                  
                                                                                                    
   Atomic configuration                                                                             
    8 entries                                                                                       
     n  l   j            E        occ.                                                              
     1  0  0.50     -4865.3608   2.0000                                                             
     2  0  0.50      -533.1368   2.0000                                                             
     2  1  1.50      -440.5031   6.0000                                                             
     3  0  0.50       -59.3186   2.0000                                                             
     4  0  0.50        -3.7291   1.0000                                                             
     3  1  1.50       -35.7012   6.0000                                                             
     3  2  2.50        -1.9157   3.0000                                                             
     4  3  2.50        -1.3606   0.0000                                                             
   Description                                                                                      
     l       E           TYP  RCUT    TYP  RCUT                                                     
     0    -59.3185931     23  1.800                                                                 
     0     -3.7290822     23  2.300                                                                 
     1    -35.7012045     23  2.300                                                                 
     1     -1.3605826     23  2.300                                                                 
     2     -1.9156920     23  2.300                                                                 
     2     -0.0236318     23  2.300                                                                 
     3     -1.3605826     23  2.300                                                                 
  local pseudopotential read in
  partial core-charges read in
  partial kinetic energy density read in
  atomic valenz-charges read in
  non local Contribution for L=           0  read in
    real space projection operators read in
  non local Contribution for L=           0  read in
    real space projection operators read in
  non local Contribution for L=           1  read in
    real space projection operators read in
  non local Contribution for L=           1  read in
    real space projection operators read in
  non local Contribution for L=           2  read in
    real space projection operators read in
  non local Contribution for L=           2  read in
    real space projection operators read in
    PAW grid and wavefunctions read in
 
   number of l-projection  operators is LMAX  =           6
   number of lm-projection operators is LMMAX =          18
 
 POTCAR:   PAW_PBE O_s 07Sep2000                  
   SHA256 =  e7f4e16ee7752e7dead62f07b2b95b8f91122148deae9dd89b96c576b0e91599 O_s/POTCAR            
   COPYR  = (c) Copyright 07Sep2000 Georg Kresse                                                    
   COPYR  = This file is part of the software VASP. Any use, copying, and all other rights are regul
   COPYR  = If you do not have a valid VASP license, you may not use, copy or distribute this file. 
   VRHFIN =O: s2p4                                                                                  
   LEXCH  = PE                                                                                      
   EATOM  =   432.3788 eV,   31.7789 Ry                                                             
                                                                                                    
   TITEL  = PAW_PBE O_s 07Sep2000                                                                   
   LULTRA =        F    use ultrasoft PP ?                                                          
   IUNSCR =        0    unscreen: 0-lin 1-nonlin 2-no                                               
   RPACOR =    0.000    partial core radius                                                         
   POMASS =   16.000; ZVAL   =    6.000    mass and valenz                                          
   RCORE  =    1.850    outmost cutoff radius                                                       
   RWIGS  =    1.700; RWIGS  =    0.900    wigner-seitz radius (au A)                               
   ENMAX  =  282.853; ENMIN  =  212.140 eV                                                          
   RCLOC  =    0.804    cutoff for local pot                                                        
   LCOR   =        T    correct aug charges                                                         
   LPAW   =        T    paw PP                                                                      
   EAUG   =  412.352                                                                                
   RMAX   =    1.897    core radius for proj-oper                                                   
   RAUG   =    1.300    factor for augmentation sphere                                              
   RDEP   =    1.878    radius for radial grids                                                     
   RDEPT  =    1.572    core radius for aug-charge                                                  
                                                                                                    
   Atomic configuration                                                                             
    4 entries                                                                                       
     n  l   j            E        occ.                                                              
     1  0  0.50      -514.6923   2.0000                                                             
     2  0  0.50       -23.9615   2.0000                                                             
     2  1  0.50        -9.0305   4.0000                                                             
     3  2  1.50        -1.3606   0.0000                                                             
   Description                                                                                      
     l       E           TYP  RCUT    TYP  RCUT                                                     
     0    -23.9615315     23  1.500                                                                 
     0    -25.3221141     23  1.500                                                                 
     1     -9.0304908     23  1.850                                                                 
     1     -7.3935399     23  1.850                                                                 
  local pseudopotential read in
  atomic valenz-charges read in
  non local Contribution for L=           0  read in
    real space projection operators read in
  non local Contribution for L=           0  read in
    real space projection operators read in
  non local Contribution for L=           1  read in
    real space projection operators read in
  non local Contribution for L=           1  read in
    real space projection operators read in
    PAW grid and wavefunctions read in
 
   number of l-projection  operators is LMAX  =           4
   number of lm-projection operators is LMMAX =           8
 
  PAW_PBE Ti_sv 26Sep2005               :
 energy of atom  1       EATOM=-1588.0892
 kinetic energy error for atom=    0.0046 (will be added to EATOM!!)
 PAW_PBE O_s 07Sep2000                  :
 energy of atom  2       EATOM= -432.3788
 kinetic energy error for atom=    0.0065 (will be added to EATOM!!)
 
 
 POSCAR: Rutile TiO2
  positions in direct lattice
  No initial velocities read in
 exchange correlation table for  LEXCH =        8
   RHO(1)=    0.500       N(1)  =     2000
   RHO(2)=  100.500       N(2)  =     4000
 


--------------------------------------------------------------------------------------------------------


 ion  position               nearest neighbor table
   1  0.000  0.000  0.000-   3 1.95   4 1.95   3 1.95   4 1.95   5 1.97   6 1.97
   2  0.500  0.500  0.500-   5 1.95   6 1.95   5 1.95   6 1.95   3 1.97   4 1.97
   3  0.195  0.805  0.500-   1 1.95   1 1.95   2 1.97
   4  0.805  0.195  0.500-   1 1.95   1 1.95   2 1.97
   5  0.305  0.305  0.000-   2 1.95   2 1.95   1 1.97
   6  0.695  0.695  0.000-   2 1.95   2 1.95   1 1.97
 
  LATTYP: Found a simple tetragonal cell.
 ALAT       =     4.5840000000
 C/A-ratio  =     0.6441972077
  
  Lattice vectors:
  
 A1 = (   4.5840000000,   0.0000000000,   0.0000000000)
 A2 = (   0.0000000000,   4.5840000000,   0.0000000000)
 A3 = (   0.0000000000,   0.0000000000,   2.9530000000)


Analysis of symmetry for initial positions (statically):
=====================================================================
 Subroutine PRICEL returns:
 Original cell was already a primitive cell.
 

 Routine SETGRP: Setting up the symmetry group for a 
 simple tetragonal supercell.


 Subroutine GETGRP returns: Found 16 space group operations
 (whereof  8 operations were pure point group operations)
 out of a pool of 16 trial point group operations.


The static configuration has the point symmetry D_2h.
 The point group associated with its full space group is D_4h.


Analysis of symmetry for dynamics (positions and initial velocities):
=====================================================================
 Subroutine PRICEL returns:
 Original cell was already a primitive cell.
 

 Routine SETGRP: Setting up the symmetry group for a 
 simple tetragonal supercell.


 Subroutine GETGRP returns: Found 16 space group operations
 (whereof  8 operations were pure point group operations)
 out of a pool of 16 trial point group operations.


The dynamic configuration has the point symmetry D_2h.
 The point group associated with its full space group is D_4h.


 Subroutine INISYM returns: Found 16 space group operations
 (whereof  8 operations are pure point group operations),
 and found     1 'primitive' translations


----------------------------------------------------------------------------------------

                                     Primitive cell                                     

  volume of cell :      62.0516

  direct lattice vectors                    reciprocal lattice vectors
     4.584000000  0.000000000  0.000000000     0.218150087  0.000000000  0.000000000
     0.000000000  4.584000000  0.000000000     0.000000000  0.218150087  0.000000000
     0.000000000  0.000000000  2.953000000     0.000000000  0.000000000  0.338638673

  length of vectors
     4.584000000  4.584000000  2.953000000     0.218150087  0.218150087  0.338638673

  position of ions in fractional coordinates (direct lattice)
     0.000000000  0.000000000  0.000000000
     0.500000000  0.500000000  0.500000000
     0.195420000  0.804580000  0.500000000
     0.804580000  0.195420000  0.500000000
     0.304580000  0.304580000  0.000000000
     0.695420000  0.695420000  0.000000000

  ion indices of the primitive-cell ions
   primitive index   ion index
                 1           1
                 2           2
                 3           3
                 4           4
                 5           5
                 6           6

----------------------------------------------------------------------------------------

 
 
 KPOINTS: Automatic KPOINTS generation            

Automatic generation of k-mesh.
 Grid dimensions read from file:
 generate k-points for:    6    6    6

 Generating k-lattice:

  Cartesian coordinates                     Fractional coordinates (reciprocal lattice)
     0.036358348  0.000000000  0.000000000     0.166666667  0.000000000  0.000000000
     0.000000000  0.036358348  0.000000000     0.000000000  0.166666667  0.000000000
     0.000000000  0.000000000  0.056439779     0.000000000  0.000000000  0.166666667

  Length of vectors
     0.036358348  0.036358348  0.056439779

  Shift w.r.t. Gamma in fractional coordinates (k-lattice)
     0.000000000  0.000000000  0.000000000

 
 Subroutine IBZKPT returns following result:
 ===========================================
 
 Found     40 irreducible k-points:
 
 Following reciprocal coordinates:
            Coordinates               Weight
  0.000000  0.000000  0.000000      1.000000
  0.166667  0.000000  0.000000      4.000000
  0.333333  0.000000  0.000000      4.000000
  0.500000  0.000000  0.000000      2.000000
  0.166667  0.166667  0.000000      4.000000
  0.333333  0.166667  0.000000      8.000000
  0.500000  0.166667  0.000000      4.000000
  0.333333  0.333333  0.000000      4.000000
  0.500000  0.333333  0.000000      4.000000
  0.500000  0.500000  0.000000      1.000000
  0.000000  0.000000  0.166667      2.000000
  0.166667  0.000000  0.166667      8.000000
  0.333333  0.000000  0.166667      8.000000
  0.500000  0.000000  0.166667      4.000000
  0.166667  0.166667  0.166667      8.000000
  0.333333  0.166667  0.166667     16.000000
  0.500000  0.166667  0.166667      8.000000
  0.333333  0.333333  0.166667      8.000000
  0.500000  0.333333  0.166667      8.000000
  0.500000  0.500000  0.166667      2.000000
  0.000000  0.000000  0.333333      2.000000
  0.166667  0.000000  0.333333      8.000000
  0.333333  0.000000  0.333333      8.000000
  0.500000  0.000000  0.333333      4.000000
  0.166667  0.166667  0.333333      8.000000
  0.333333  0.166667  0.333333     16.000000
  0.500000  0.166667  0.333333      8.000000
  0.333333  0.333333  0.333333      8.000000
  0.500000  0.333333  0.333333      8.000000
  0.500000  0.500000  0.333333      2.000000
  0.000000  0.000000  0.500000      1.000000
  0.166667  0.000000  0.500000      4.000000
  0.333333  0.000000  0.500000      4.000000
  0.500000  0.000000  0.500000      2.000000
  0.166667  0.166667  0.500000      4.000000
  0.333333  0.166667  0.500000      8.000000
  0.500000  0.166667  0.500000      4.000000
  0.333333  0.333333  0.500000      4.000000
  0.500000  0.333333  0.500000      4.000000
  0.500000  0.500000  0.500000      1.000000
 
 Following cartesian coordinates:
            Coordinates               Weight
  0.000000  0.000000  0.000000      1.000000
  0.036358  0.000000  0.000000      4.000000
  0.072717  0.000000  0.000000      4.000000
  0.109075  0.000000  0.000000      2.000000
  0.036358  0.036358  0.000000      4.000000
  0.072717  0.036358  0.000000      8.000000
  0.109075  0.036358  0.000000      4.000000
  0.072717  0.072717  0.000000      4.000000
  0.109075  0.072717  0.000000      4.000000
  0.109075  0.109075  0.000000      1.000000
  0.000000  0.000000  0.056440      2.000000
  0.036358  0.000000  0.056440      8.000000
  0.072717  0.000000  0.056440      8.000000
  0.109075  0.000000  0.056440      4.000000
  0.036358  0.036358  0.056440      8.000000
  0.072717  0.036358  0.056440     16.000000
  0.109075  0.036358  0.056440      8.000000
  0.072717  0.072717  0.056440      8.000000
  0.109075  0.072717  0.056440      8.000000
  0.109075  0.109075  0.056440      2.000000
  0.000000  0.000000  0.112880      2.000000
  0.036358  0.000000  0.112880      8.000000
  0.072717  0.000000  0.112880      8.000000
  0.109075  0.000000  0.112880      4.000000
  0.036358  0.036358  0.112880      8.000000
  0.072717  0.036358  0.112880     16.000000
  0.109075  0.036358  0.112880      8.000000
  0.072717  0.072717  0.112880      8.000000
  0.109075  0.072717  0.112880      8.000000
  0.109075  0.109075  0.112880      2.000000
  0.000000  0.000000  0.169319      1.000000
  0.036358  0.000000  0.169319      4.000000
  0.072717  0.000000  0.169319      4.000000
  0.109075  0.000000  0.169319      2.000000
  0.036358  0.036358  0.169319      4.000000
  0.072717  0.036358  0.169319      8.000000
  0.109075  0.036358  0.169319      4.000000
  0.072717  0.072717  0.169319      4.000000
  0.109075  0.072717  0.169319      4.000000
  0.109075  0.109075  0.169319      1.000000
 


--------------------------------------------------------------------------------------------------------




 Dimension of arrays:
   k-points           NKPTS =     40   k-points in BZ     NKDIM =     40   number of bands    NBANDS=     28
   number of dos      NEDOS =    301   number of ions     NIONS =      6
   non local maximal  LDIM  =      6   non local SUM 2l+1 LMDIM =     18
   total plane-waves  NPLWV =  12544
   max r-space proj   IRMAX =      1   max aug-charges    IRDMAX=   8047
   dimension x,y,z NGX =    28 NGY =   28 NGZ =   16
   dimension x,y,z NGXF=    56 NGYF=   56 NGZF=   32
   support grid    NGXF=    56 NGYF=   56 NGZF=   32
   ions per type =               2   4
   NGX,Y,Z   is equivalent  to a cutoff of  10.15, 10.15,  9.01 a.u.
   NGXF,Y,Z  is equivalent  to a cutoff of  20.31, 20.31, 18.02 a.u.

 SYSTEM =  TiO2                                    
 POSCAR =  Rutile TiO2                             

 Startparameter for this run:
   NWRITE =      2    write-flag & timer
   PREC   = normal    normal or accurate (medium, high low for compatibility)
   ISTART =      0    job   : 0-new  1-cont  2-samecut
   ICHARG =      2    charge: 1-file 2-atom 10-const
   ISPIN  =      1    spin polarized calculation?
   LNONCOLLINEAR =      F non collinear calculations
   LSORBIT =      F    spin-orbit coupling
   INIWAV =      1    electr: 0-lowe 1-rand  2-diag
   LASPH  =      F    aspherical Exc in radial PAW
   METAGGA=      F    non-selfconsistent MetaGGA calc.

 Electronic Relaxation 1
   ENCUT  =  500.0 eV  36.75 Ry    6.06 a.u.   8.36  8.36  5.38*2*pi/ulx,y,z
   ENINI  =  500.0     initial cutoff
   ENAUG  =  482.8 eV  augmentation charge cutoff
   NELM   =     60;   NELMIN=  2; NELMDL= -5     # of ELM steps 
   EDIFF  = 0.1E-04   stopping-criterion for ELM
   LREAL  =      F    real-space projection
   NLSPLINE    = F    spline interpolate recip. space projectors
   LCOMPAT=      F    compatible to vasp.4.4
   GGA_COMPAT  = T    GGA compatible to vasp.4.4-vasp.4.6
   LMAXPAW     = -100 max onsite density
   LMAXMIX     =    2 max onsite mixed and CHGCAR
   VOSKOWN=      0    Vosko Wilk Nusair interpolation
   ROPT   =    0.00000   0.00000
 Ionic relaxation
   EDIFFG = -.1E-01   stopping-criterion for IOM
   NSW    =     15    number of steps for IOM
   NBLOCK =      1;   KBLOCK =     15    inner block; outer block 
   IBRION =      1    ionic relax: 0-MD 1-quasi-New 2-CG
   NFREE  =      0    steps in history (QN), initial steepest desc. (CG)
   ISIF   =      0    stress and relaxation
   IWAVPR =     11    prediction:  0-non 1-charg 2-wave 3-comb
   ISYM   =      2    0-nonsym 1-usesym 2-fastsym
   LCORR  =      T    Harris-Foulkes like correction to forces

   POTIM  = 0.5000    time-step for ionic-motion
   TEIN   =    0.0    initial temperature
   TEBEG  =    0.0;   TEEND  =   0.0 temperature during run
   SMASS  =  -3.00    Nose mass-parameter (am)
   estimated Nose-frequenzy (Omega)   =  0.10E-29 period in steps = 0.13E+47 mass=  -0.480E-27a.u.
   SCALEE = 1.0000    scale energy and forces
   NPACO  =    256;   APACO  = 16.0  distance and # of slots for P.C.
   PSTRESS=    0.0 pullay stress

  Mass of Ions in am
   POMASS =  47.88 16.00
  Ionic Valenz
   ZVAL   =  12.00  6.00
  Atomic Wigner-Seitz radii
   RWIGS  =  -1.00 -1.00
  virtual crystal weights 
   VCA    =   1.00  1.00
   NELECT =      48.0000    total number of electrons
   NUPDOWN=      -1.0000    fix difference up-down

 DOS related values:
   EMIN   =  10.00;   EMAX   =-10.00  energy-range for DOS
   EFERMI =   0.00
   ISMEAR =     0;   SIGMA  =   0.01  broadening in eV -4-tet -1-fermi 0-gaus

 Electronic relaxation 2 (details)
   IALGO  =     38    algorithm
   LDIAG  =      T    sub-space diagonalisation (order eigenvalues)
   LSUBROT=      F    optimize rotation matrix (better conditioning)
   TURBO    =      0    0=normal 1=particle mesh
   IRESTART =      0    0=no restart 2=restart with 2 vectors
   NREBOOT  =      0    no. of reboots
   NMIN     =      0    reboot dimension
   EREF     =   0.00    reference energy to select bands
   IMIX   =      4    mixing-type and parameters
     AMIX     =   0.40;   BMIX     =  1.00
     AMIX_MAG =   1.60;   BMIX_MAG =  1.00
     AMIN     =   0.10
     WC   =   100.;   INIMIX=   1;  MIXPRE=   1;  MAXMIX= -45

 Intra band minimization:
   WEIMIN = 0.0010     energy-eigenvalue tresh-hold
   EBREAK =  0.89E-07  absolut break condition
   DEPER  =   0.30     relativ break condition  

   TIME   =   0.40     timestep for ELM

  volume/ion in A,a.u.               =      10.34        69.79
  Fermi-wavevector in a.u.,A,eV,Ry     =   1.502811  2.839901 30.727952  2.258441
  Thomas-Fermi vector in A             =   2.614003
 
 Write flags
   LWAVE        =      T    write WAVECAR
   LDOWNSAMPLE  =      F    k-point downsampling of WAVECAR
   LCHARG       =      T    write CHGCAR
   LVTOT        =      F    write LOCPOT, total local potential
   LVHAR        =      F    write LOCPOT, Hartree potential only
   LELF         =      F    write electronic localiz. function (ELF)
   LORBIT       =      0    0 simple, 1 ext, 2 COOP (PROOUT), +10 PAW based schemes


 Dipole corrections
   LMONO  =      F    monopole corrections only (constant potential shift)
   LDIPOL =      F    correct potential (dipole corrections)
   IDIPOL =      0    1-x, 2-y, 3-z, 4-all directions 
   EPSILON=  1.0000000 bulk dielectric constant

 Exchange correlation treatment:
   GGA     =    --    GGA type
   LEXCH   =     8    internal setting for exchange type
   VOSKOWN=      0    Vosko Wilk Nusair interpolation
   LHFCALC =     F    Hartree Fock is set to
   LHFONE  =     F    Hartree Fock one center treatment
   AEXX    =    0.0000 exact exchange contribution

 Linear response parameters
   LEPSILON=     F    determine dielectric tensor
   LRPA    =     F    only Hartree local field effects (RPA)
   LNABLA  =     F    use nabla operator in PAW spheres
   LVEL    =     F    velocity operator in full k-point grid
   LINTERFAST=   F  fast interpolation
   KINTER  =     0    interpolate to denser k-point grid
   CSHIFT  =0.1000    complex shift for real part using Kramers Kronig
   OMEGAMAX=  -1.0    maximum frequency
   DEG_THRESHOLD= 0.2000000E-02 threshold for treating states as degnerate
   RTIME   =   -0.100 relaxation time in fs
  (WPLASMAI=    0.000 imaginary part of plasma frequency in eV, 0.658/RTIME)
   DFIELD  = 0.0000000 0.0000000 0.0000000 field for delta impulse in time
 
 Orbital magnetization related:
   ORBITALMAG=     F  switch on orbital magnetization
   LCHIMAG   =     F  perturbation theory with respect to B field
   DQ        =  0.001000  dq finite difference perturbation B field
   LLRAUG    =     F  two centre corrections for induced B field



--------------------------------------------------------------------------------------------------------


 quasi-Newton-method for relaxation of ions
 charge density and potential will be updated during run
 non-spin polarized calculation
 Variant of blocked Davidson
 Davidson routine will perform the subspace rotation
 perform sub-space diagonalisation
    after iterative eigenvector-optimisation
 modified Broyden-mixing scheme, WC =      100.0
 initial mixing is a Kerker type mixing with AMIX =  0.4000 and BMIX =      1.0000
 Hartree-type preconditioning will be used
 using additional bands            4
 reciprocal scheme for non local part
 use partial core corrections
 calculate Harris-corrections to forces 
   (improved forces if not selfconsistent)
 use gradient corrections 
 use of overlap-Matrix (Vanderbilt PP)
 Gauss-broadening in eV      SIGMA  =   0.01


--------------------------------------------------------------------------------------------------------


  energy-cutoff  :      500.00
  volume of cell :       62.05
      direct lattice vectors                 reciprocal lattice vectors
     4.584000000  0.000000000  0.000000000     0.218150087  0.000000000  0.000000000
     0.000000000  4.584000000  0.000000000     0.000000000  0.218150087  0.000000000
     0.000000000  0.000000000  2.953000000     0.000000000  0.000000000  0.338638673

  length of vectors
     4.584000000  4.584000000  2.953000000     0.218150087  0.218150087  0.338638673


 
 k-points in units of 2pi/SCALE and weight: Automatic KPOINTS generation            
   0.00000000  0.00000000  0.00000000       0.005
   0.03635835  0.00000000  0.00000000       0.019
   0.07271670  0.00000000  0.00000000       0.019
   0.10907504  0.00000000  0.00000000       0.009
   0.03635835  0.03635835  0.00000000       0.019
   0.07271670  0.03635835  0.00000000       0.037
   0.10907504  0.03635835  0.00000000       0.019
   0.07271670  0.07271670  0.00000000       0.019
   0.10907504  0.07271670  0.00000000       0.019
   0.10907504  0.10907504  0.00000000       0.005
   0.00000000  0.00000000  0.05643978       0.009
   0.03635835  0.00000000  0.05643978       0.037
   0.07271670  0.00000000  0.05643978       0.037
   0.10907504  0.00000000  0.05643978       0.019
   0.03635835  0.03635835  0.05643978       0.037
   0.07271670  0.03635835  0.05643978       0.074
   0.10907504  0.03635835  0.05643978       0.037
   0.07271670  0.07271670  0.05643978       0.037
   0.10907504  0.07271670  0.05643978       0.037
   0.10907504  0.10907504  0.05643978       0.009
   0.00000000  0.00000000  0.11287956       0.009
   0.03635835  0.00000000  0.11287956       0.037
   0.07271670  0.00000000  0.11287956       0.037
   0.10907504  0.00000000  0.11287956       0.019
   0.03635835  0.03635835  0.11287956       0.037
   0.07271670  0.03635835  0.11287956       0.074
   0.10907504  0.03635835  0.11287956       0.037
   0.07271670  0.07271670  0.11287956       0.037
   0.10907504  0.07271670  0.11287956       0.037
   0.10907504  0.10907504  0.11287956       0.009
   0.00000000  0.00000000  0.16931934       0.005
   0.03635835  0.00000000  0.16931934       0.019
   0.07271670  0.00000000  0.16931934       0.019
   0.10907504  0.00000000  0.16931934       0.009
   0.03635835  0.03635835  0.16931934       0.019
   0.07271670  0.03635835  0.16931934       0.037
   0.10907504  0.03635835  0.16931934       0.019
   0.07271670  0.07271670  0.16931934       0.019
   0.10907504  0.07271670  0.16931934       0.019
   0.10907504  0.10907504  0.16931934       0.005
 
 k-points in reciprocal lattice and weights: Automatic KPOINTS generation            
   0.00000000  0.00000000  0.00000000       0.005
   0.16666667  0.00000000  0.00000000       0.019
   0.33333333  0.00000000  0.00000000       0.019
   0.50000000  0.00000000  0.00000000       0.009
   0.16666667  0.16666667  0.00000000       0.019
   0.33333333  0.16666667  0.00000000       0.037
   0.50000000  0.16666667  0.00000000       0.019
   0.33333333  0.33333333  0.00000000       0.019
   0.50000000  0.33333333  0.00000000       0.019
   0.50000000  0.50000000  0.00000000       0.005
   0.00000000  0.00000000  0.16666667       0.009
   0.16666667  0.00000000  0.16666667       0.037
   0.33333333  0.00000000  0.16666667       0.037
   0.50000000  0.00000000  0.16666667       0.019
   0.16666667  0.16666667  0.16666667       0.037
   0.33333333  0.16666667  0.16666667       0.074
   0.50000000  0.16666667  0.16666667       0.037
   0.33333333  0.33333333  0.16666667       0.037
   0.50000000  0.33333333  0.16666667       0.037
   0.50000000  0.50000000  0.16666667       0.009
   0.00000000  0.00000000  0.33333333       0.009
   0.16666667  0.00000000  0.33333333       0.037
   0.33333333  0.00000000  0.33333333       0.037
   0.50000000  0.00000000  0.33333333       0.019
   0.16666667  0.16666667  0.33333333       0.037
   0.33333333  0.16666667  0.33333333       0.074
   0.50000000  0.16666667  0.33333333       0.037
   0.33333333  0.33333333  0.33333333       0.037
   0.50000000  0.33333333  0.33333333       0.037
   0.50000000  0.50000000  0.33333333       0.009
   0.00000000  0.00000000  0.50000000       0.005
   0.16666667  0.00000000  0.50000000       0.019
   0.33333333  0.00000000  0.50000000       0.019
   0.50000000  0.00000000  0.50000000       0.009
   0.16666667  0.16666667  0.50000000       0.019
   0.33333333  0.16666667  0.50000000       0.037
   0.50000000  0.16666667  0.50000000       0.019
   0.33333333  0.33333333  0.50000000       0.019
   0.50000000  0.33333333  0.50000000       0.019
   0.50000000  0.50000000  0.50000000       0.005
 
 position of ions in fractional coordinates (direct lattice) 
   0.00000000  0.00000000  0.00000000
   0.50000000  0.50000000  0.50000000
   0.19542000  0.80458000  0.50000000
   0.80458000  0.19542000  0.50000000
   0.30458000  0.30458000  0.00000000
   0.69542000  0.69542000  0.00000000
 
 position of ions in cartesian coordinates  (Angst):
   0.00000000  0.00000000  0.00000000
   2.29200000  2.29200000  1.47650000
   0.89580528  3.68819472  1.47650000
   3.68819472  0.89580528  1.47650000
   1.39619472  1.39619472  0.00000000
   3.18780528  3.18780528  0.00000000
 


--------------------------------------------------------------------------------------------------------


 k-point   1 :   0.0000 0.0000 0.0000  plane waves:    1559
 k-point   2 :   0.1667 0.0000 0.0000  plane waves:    1577
 k-point   3 :   0.3333 0.0000 0.0000  plane waves:    1585
 k-point   4 :   0.5000 0.0000 0.0000  plane waves:    1596
 k-point   5 :   0.1667 0.1667 0.0000  plane waves:    1574
 k-point   6 :   0.3333 0.1667 0.0000  plane waves:    1584
 k-point   7 :   0.5000 0.1667 0.0000  plane waves:    1592
 k-point   8 :   0.3333 0.3333 0.0000  plane waves:    1582
 k-point   9 :   0.5000 0.3333 0.0000  plane waves:    1584
 k-point  10 :   0.5000 0.5000 0.0000  plane waves:    1560
 k-point  11 :   0.0000 0.0000 0.1667  plane waves:    1603
 k-point  12 :   0.1667 0.0000 0.1667  plane waves:    1573
 k-point  13 :   0.3333 0.0000 0.1667  plane waves:    1583
 k-point  14 :   0.5000 0.0000 0.1667  plane waves:    1586
 k-point  15 :   0.1667 0.1667 0.1667  plane waves:    1579
 k-point  16 :   0.3333 0.1667 0.1667  plane waves:    1574
 k-point  17 :   0.5000 0.1667 0.1667  plane waves:    1580
 k-point  18 :   0.3333 0.3333 0.1667  plane waves:    1574
 k-point  19 :   0.5000 0.3333 0.1667  plane waves:    1580
 k-point  20 :   0.5000 0.5000 0.1667  plane waves:    1584
 k-point  21 :   0.0000 0.0000 0.3333  plane waves:    1583
 k-point  22 :   0.1667 0.0000 0.3333  plane waves:    1586
 k-point  23 :   0.3333 0.0000 0.3333  plane waves:    1569
 k-point  24 :   0.5000 0.0000 0.3333  plane waves:    1576
 k-point  25 :   0.1667 0.1667 0.3333  plane waves:    1573
 k-point  26 :   0.3333 0.1667 0.3333  plane waves:    1571
 k-point  27 :   0.5000 0.1667 0.3333  plane waves:    1562
 k-point  28 :   0.3333 0.3333 0.3333  plane waves:    1567
 k-point  29 :   0.5000 0.3333 0.3333  plane waves:    1568
 k-point  30 :   0.5000 0.5000 0.3333  plane waves:    1588
 k-point  31 :   0.0000 0.0000 0.5000  plane waves:    1586
 k-point  32 :   0.1667 0.0000 0.5000  plane waves:    1584
 k-point  33 :   0.3333 0.0000 0.5000  plane waves:    1566
 k-point  34 :   0.5000 0.0000 0.5000  plane waves:    1544
 k-point  35 :   0.1667 0.1667 0.5000  plane waves:    1576
 k-point  36 :   0.3333 0.1667 0.5000  plane waves:    1572
 k-point  37 :   0.5000 0.1667 0.5000  plane waves:    1588
 k-point  38 :   0.3333 0.3333 0.5000  plane waves:    1562
 k-point  39 :   0.5000 0.3333 0.5000  plane waves:    1552
 k-point  40 :   0.5000 0.5000 0.5000  plane waves:    1568

 maximum and minimum number of plane-waves per node :      1603     1544

 maximum number of plane-waves:      1603
 maximum index in each direction: 
   IXMAX=    8   IYMAX=    8   IZMAX=    5
   IXMIN=   -8   IYMIN=   -8   IZMIN=   -5


 serial   3D FFT for wavefunctions
 parallel 3D FFT for charge:
    minimum data exchange during FFTs selected (reduces bandwidth)


 total amount of memory used by VASP MPI-rank0    88673. kBytes
=======================================================================

   base      :      30000. kBytes
   nonl-proj :      18620. kBytes
   fftplans  :       3632. kBytes
   grid      :       6384. kBytes
   one-center:         93. kBytes
   wavefun   :      29944. kBytes
 
     INWAV:  cpu time    0.0000: real time    0.0000
 Broyden mixing: mesh for mixing (old mesh)
   NGX = 17   NGY = 17   NGZ = 11
  (NGX  = 56   NGY  = 56   NGZ  = 32)
  gives a total of   3179 points

 initial charge density was supplied:
 charge density of overlapping atoms calculated
 number of electron      48.0000000 magnetization 
 keeping initial charge density in first step


--------------------------------------------------------------------------------------------------------


 Maximum index for augmentation-charges         7591 (set IRDMAX)


--------------------------------------------------------------------------------------------------------


 First call to EWALD:  gamma=   0.448
 Maximum number of real-space cells 2x 2x 4
 Maximum number of reciprocal cells 3x 3x 2

    FEWALD:  cpu time    0.0012: real time    0.0012


--------------------------------------- Iteration      1(   1)  ---------------------------------------


    POTLOK:  cpu time    0.0325: real time    0.0350
    SETDIJ:  cpu time    0.0073: real time    0.0073
     EDDAV:  cpu time    1.3204: real time    1.3215
       DOS:  cpu time    0.0019: real time    0.0019
    --------------------------------------------
      LOOP:  cpu time    1.3622: real time    1.3657

 eigenvalue-minimisations  :  2240
 total energy-change (2. order) : 0.6358998E+03  (-0.2445988E+04)
 number of electron      48.0000000 magnetization 
 augmentation part       48.0000000 magnetization 

 Free energy of the ion-electron system (eV)
  ---------------------------------------------------
  alpha Z        PSCENC =       184.33841299
  Ewald energy   TEWEN  =     -3603.98661611
  -Hartree energ DENC   =     -1243.30134872
  -exchange      EXHF   =         0.00000000
  -V(xc)+E(xc)   XCENC  =       234.93629837
  PAW double counting   =      3905.77317989    -3883.35318710
  entropy T*S    EENTRO =        -0.00028074
  eigenvalues    EBANDS =       135.83505296
  atomic energy  EATOM  =      4905.65827411
  Solvation  Ediel_sol  =         0.00000000
  ---------------------------------------------------
  free energy    TOTEN  =       635.89978565 eV

  energy without entropy =      635.90006639  energy(sigma->0) =      635.89992602


--------------------------------------------------------------------------------------------------------




--------------------------------------- Iteration      1(   2)  ---------------------------------------


     EDDAV:  cpu time    1.4310: real time    1.4329
       DOS:  cpu time    0.0004: real time    0.0004
    --------------------------------------------
      LOOP:  cpu time    1.4314: real time    1.4333

 eigenvalue-minimisations  :  2548
 total energy-change (2. order) :-0.6400344E+03  (-0.6199554E+03)
 number of electron      48.0000000 magnetization 
 augmentation part       48.0000000 magnetization 

 Free energy of the ion-electron system (eV)
  ---------------------------------------------------
  alpha Z        PSCENC =       184.33841299
  Ewald energy   TEWEN  =     -3603.98661611
  -Hartree energ DENC   =     -1243.30134872
  -exchange      EXHF   =         0.00000000
  -V(xc)+E(xc)   XCENC  =       234.93629837
  PAW double counting   =      3905.77317989    -3883.35318710
  entropy T*S    EENTRO =        -0.00000000
  eigenvalues    EBANDS =      -504.19967361
  atomic energy  EATOM  =      4905.65827411
  Solvation  Ediel_sol  =         0.00000000
  ---------------------------------------------------
  free energy    TOTEN  =        -4.13466018 eV

  energy without entropy =       -4.13466018  energy(sigma->0) =       -4.13466018


--------------------------------------------------------------------------------------------------------




--------------------------------------- Iteration      1(   3)  ---------------------------------------


     EDDAV:  cpu time    1.7278: real time    1.7279
       DOS:  cpu time    0.0004: real time    0.0004
    --------------------------------------------
      LOOP:  cpu time    1.7282: real time    1.7283

 eigenvalue-minimisations  :  3188
 total energy-change (2. order) :-0.6310827E+02  (-0.6280387E+02)
 number of electron      48.0000000 magnetization 
 augmentation part       48.0000000 magnetization 

 Free energy of the ion-electron system (eV)
  ---------------------------------------------------
  alpha Z        PSCENC =       184.33841299
  Ewald energy   TEWEN  =     -3603.98661611
  -Hartree energ DENC   =     -1243.30134872
  -exchange      EXHF   =         0.00000000
  -V(xc)+E(xc)   XCENC  =       234.93629837
  PAW double counting   =      3905.77317989    -3883.35318710
  entropy T*S    EENTRO =        -0.00000000
  eigenvalues    EBANDS =      -567.30794239
  atomic energy  EATOM  =      4905.65827411
  Solvation  Ediel_sol  =         0.00000000
  ---------------------------------------------------
  free energy    TOTEN  =       -67.24292896 eV

  energy without entropy =      -67.24292896  energy(sigma->0) =      -67.24292896


--------------------------------------------------------------------------------------------------------




--------------------------------------- Iteration      1(   4)  ---------------------------------------


     EDDAV:  cpu time    1.6865: real time    1.6865
       DOS:  cpu time    0.0004: real time    0.0004
    --------------------------------------------
      LOOP:  cpu time    1.6869: real time    1.6869

 eigenvalue-minimisations  :  3172
 total energy-change (2. order) :-0.3784662E+01  (-0.3782038E+01)
 number of electron      48.0000000 magnetization 
 augmentation part       48.0000000 magnetization 

 Free energy of the ion-electron system (eV)
  ---------------------------------------------------
  alpha Z        PSCENC =       184.33841299
  Ewald energy   TEWEN  =     -3603.98661611
  -Hartree energ DENC   =     -1243.30134872
  -exchange      EXHF   =         0.00000000
  -V(xc)+E(xc)   XCENC  =       234.93629837
  PAW double counting   =      3905.77317989    -3883.35318710
  entropy T*S    EENTRO =        -0.00000000
  eigenvalues    EBANDS =      -571.09260404
  atomic energy  EATOM  =      4905.65827411
  Solvation  Ediel_sol  =         0.00000000
  ---------------------------------------------------
  free energy    TOTEN  =       -71.02759061 eV

  energy without entropy =      -71.02759061  energy(sigma->0) =      -71.02759061


--------------------------------------------------------------------------------------------------------




--------------------------------------- Iteration      1(   5)  ---------------------------------------


     EDDAV:  cpu time    1.5917: real time    1.5918
       DOS:  cpu time    0.0003: real time    0.0003
    CHARGE:  cpu time    0.1094: real time    0.1094
    MIXING:  cpu time    0.0014: real time    0.0014
    --------------------------------------------
      LOOP:  cpu time    1.7029: real time    1.7029

 eigenvalue-minimisations  :  2924
 total energy-change (2. order) :-0.1444957E+00  (-0.1444792E+00)
 number of electron      47.9999975 magnetization 
 augmentation part       13.1428321 magnetization 

 Broyden mixing:
  rms(total) = 0.34317E+01    rms(broyden)= 0.34317E+01
  rms(prec ) = 0.59332E+01
  weight for this iteration     100.00

 Free energy of the ion-electron system (eV)
  ---------------------------------------------------
  alpha Z        PSCENC =       184.33841299
  Ewald energy   TEWEN  =     -3603.98661611
  -Hartree energ DENC   =     -1243.30134872
  -exchange      EXHF   =         0.00000000
  -V(xc)+E(xc)   XCENC  =       234.93629837
  PAW double counting   =      3905.77317989    -3883.35318710
  entropy T*S    EENTRO =        -0.00000000
  eigenvalues    EBANDS =      -571.23709971
  atomic energy  EATOM  =      4905.65827411
  Solvation  Ediel_sol  =         0.00000000
  ---------------------------------------------------
  free energy    TOTEN  =       -71.17208628 eV

  energy without entropy =      -71.17208628  energy(sigma->0) =      -71.17208628


--------------------------------------------------------------------------------------------------------




--------------------------------------- Iteration      1(   6)  ---------------------------------------


    POTLOK:  cpu time    0.0321: real time    0.0321
    SETDIJ:  cpu time    0.0067: real time    0.0067
     EDDAV:  cpu time    1.4713: real time    1.4724
       DOS:  cpu time    0.0004: real time    0.0004
    CHARGE:  cpu time    0.1031: real time    0.1031
    MIXING:  cpu time    0.0014: real time    0.0014
    --------------------------------------------
      LOOP:  cpu time    1.6150: real time    1.6162

 eigenvalue-minimisations  :  2652
 total energy-change (2. order) : 0.1708591E+02  (-0.1191917E+02)
 number of electron      47.9999982 magnetization 
 augmentation part       12.6556646 magnetization 

 Broyden mixing:
  rms(total) = 0.40486E+01    rms(broyden)= 0.40486E+01
  rms(prec ) = 0.43336E+01
  weight for this iteration     100.00

 eigenvalues of (default mixing * dielectric matrix)
  average eigenvalue GAMMA=   0.3658
  0.3658

 Free energy of the ion-electron system (eV)
  ---------------------------------------------------
  alpha Z        PSCENC =       184.33841299
  Ewald energy   TEWEN  =     -3603.98661611
  -Hartree energ DENC   =     -1226.05135558
  -exchange      EXHF   =         0.00000000
  -V(xc)+E(xc)   XCENC  =       236.71184634
  PAW double counting   =      4658.52350739    -4646.44411293
  entropy T*S    EENTRO =        -0.00000000
  eigenvalues    EBANDS =      -562.83612858
  atomic energy  EATOM  =      4905.65827411
  Solvation  Ediel_sol  =         0.00000000
  ---------------------------------------------------
  free energy    TOTEN  =       -54.08617236 eV

  energy without entropy =      -54.08617236  energy(sigma->0) =      -54.08617236


--------------------------------------------------------------------------------------------------------




--------------------------------------- Iteration      1(   7)  ---------------------------------------


    POTLOK:  cpu time    0.0295: real time    0.0296
    SETDIJ:  cpu time    0.0070: real time    0.0070
     EDDAV:  cpu time    1.5411: real time    1.5423
       DOS:  cpu time    0.0004: real time    0.0004
    CHARGE:  cpu time    0.1054: real time    0.1056
    MIXING:  cpu time    0.0014: real time    0.0014
    --------------------------------------------
      LOOP:  cpu time    1.6848: real time    1.6863

 eigenvalue-minimisations  :  2840
 total energy-change (2. order) : 0.4536049E+00  (-0.1393379E+01)
 number of electron      47.9999981 magnetization 
 augmentation part       12.1611327 magnetization 

 Broyden mixing:
  rms(total) = 0.26025E+01    rms(broyden)= 0.26025E+01
  rms(prec ) = 0.26535E+01
  weight for this iteration     100.00

 eigenvalues of (default mixing * dielectric matrix)
  average eigenvalue GAMMA=   2.1266
  0.7141  3.5390

 Free energy of the ion-electron system (eV)
  ---------------------------------------------------
  alpha Z        PSCENC =       184.33841299
  Ewald energy   TEWEN  =     -3603.98661611
  -Hartree energ DENC   =     -1225.23801640
  -exchange      EXHF   =         0.00000000
  -V(xc)+E(xc)   XCENC  =       236.14557050
  PAW double counting   =      5220.84939675    -5207.18233955
  entropy T*S    EENTRO =        -0.00000000
  eigenvalues    EBANDS =      -564.21724975
  atomic energy  EATOM  =      4905.65827411
  Solvation  Ediel_sol  =         0.00000000
  ---------------------------------------------------
  free energy    TOTEN  =       -53.63256745 eV

  energy without entropy =      -53.63256745  energy(sigma->0) =      -53.63256745


--------------------------------------------------------------------------------------------------------




--------------------------------------- Iteration      1(   8)  ---------------------------------------


    POTLOK:  cpu time    0.0296: real time    0.0296
    SETDIJ:  cpu time    0.0068: real time    0.0068
     EDDAV:  cpu time    1.4384: real time    1.4390
       DOS:  cpu time    0.0003: real time    0.0003
    CHARGE:  cpu time    0.1043: real time    0.1043
    MIXING:  cpu time    0.0014: real time    0.0014
    --------------------------------------------
      LOOP:  cpu time    1.5808: real time    1.5814

 eigenvalue-minimisations  :  2624
 total energy-change (2. order) :-0.1647445E+01  (-0.1191338E+01)
 number of electron      47.9999980 magnetization 
 augmentation part       12.4467144 magnetization 

 Broyden mixing:
  rms(total) = 0.15071E+01    rms(broyden)= 0.15071E+01
  rms(prec ) = 0.26324E+01
  weight for this iteration     100.00

 eigenvalues of (default mixing * dielectric matrix)
  average eigenvalue GAMMA=   1.2449
  1.5652  1.5652  0.6045

 Free energy of the ion-electron system (eV)
  ---------------------------------------------------
  alpha Z        PSCENC =       184.33841299
  Ewald energy   TEWEN  =     -3603.98661611
  -Hartree energ DENC   =     -1202.59211314
  -exchange      EXHF   =         0.00000000
  -V(xc)+E(xc)   XCENC  =       235.42245616
  PAW double counting   =      8279.12593012    -8251.30341004
  entropy T*S    EENTRO =        -0.00000000
  eigenvalues    EBANDS =      -601.94294620
  atomic energy  EATOM  =      4905.65827411
  Solvation  Ediel_sol  =         0.00000000
  ---------------------------------------------------
  free energy    TOTEN  =       -55.28001212 eV

  energy without entropy =      -55.28001212  energy(sigma->0) =      -55.28001212


--------------------------------------------------------------------------------------------------------




--------------------------------------- Iteration      1(   9)  ---------------------------------------


    POTLOK:  cpu time    0.0295: real time    0.0296
    SETDIJ:  cpu time    0.0068: real time    0.0068
     EDDAV:  cpu time    1.4403: real time    1.4403
       DOS:  cpu time    0.0003: real time    0.0003
    CHARGE:  cpu time    0.1017: real time    0.1017
    MIXING:  cpu time    0.0015: real time    0.0015
    --------------------------------------------
      LOOP:  cpu time    1.5801: real time    1.5802

 eigenvalue-minimisations  :  2560
 total energy-change (2. order) : 0.1628567E+01  (-0.1464467E+01)
 number of electron      47.9999981 magnetization 
 augmentation part       12.0901622 magnetization 

 Broyden mixing:
  rms(total) = 0.26552E+00    rms(broyden)= 0.26547E+00
  rms(prec ) = 0.41949E+00
  weight for this iteration     100.00

 eigenvalues of (default mixing * dielectric matrix)
  average eigenvalue GAMMA=   1.2082
  1.6941  1.6941  0.9226  0.5221

 Free energy of the ion-electron system (eV)
  ---------------------------------------------------
  alpha Z        PSCENC =       184.33841299
  Ewald energy   TEWEN  =     -3603.98661611
  -Hartree energ DENC   =     -1222.42876206
  -exchange      EXHF   =         0.00000000
  -V(xc)+E(xc)   XCENC  =       235.90307224
  PAW double counting   =      7080.21943560    -7055.03907967
  entropy T*S    EENTRO =        -0.00000000
  eigenvalues    EBANDS =      -578.31618261
  atomic energy  EATOM  =      4905.65827411
  Solvation  Ediel_sol  =         0.00000000
  ---------------------------------------------------
  free energy    TOTEN  =       -53.65144551 eV

  energy without entropy =      -53.65144551  energy(sigma->0) =      -53.65144551


--------------------------------------------------------------------------------------------------------




--------------------------------------- Iteration      1(  10)  ---------------------------------------


    POTLOK:  cpu time    0.0286: real time    0.0286
    SETDIJ:  cpu time    0.0071: real time    0.0071
     EDDAV:  cpu time    1.6235: real time    1.6249
       DOS:  cpu time    0.0004: real time    0.0004
    CHARGE:  cpu time    0.1066: real time    0.1068
    MIXING:  cpu time    0.0016: real time    0.0016
    --------------------------------------------
      LOOP:  cpu time    1.7677: real time    1.7693

 eigenvalue-minimisations  :  3048
 total energy-change (2. order) : 0.4111622E-01  (-0.4741986E-01)
 number of electron      47.9999981 magnetization 
 augmentation part       12.1091083 magnetization 

 Broyden mixing:
  rms(total) = 0.21604E+00    rms(broyden)= 0.21604E+00
  rms(prec ) = 0.22456E+00
  weight for this iteration     100.00

 eigenvalues of (default mixing * dielectric matrix)
  average eigenvalue GAMMA=   1.2297
  2.3088  1.3657  0.9718  0.9718  0.5303

 Free energy of the ion-electron system (eV)
  ---------------------------------------------------
  alpha Z        PSCENC =       184.33841299
  Ewald energy   TEWEN  =     -3603.98661611
  -Hartree energ DENC   =     -1224.63362946
  -exchange      EXHF   =         0.00000000
  -V(xc)+E(xc)   XCENC  =       236.14945096
  PAW double counting   =      6980.66699494    -6955.36806007
  entropy T*S    EENTRO =        -0.00000000
  eigenvalues    EBANDS =      -576.43515665
  atomic energy  EATOM  =      4905.65827411
  Solvation  Ediel_sol  =         0.00000000
  ---------------------------------------------------
  free energy    TOTEN  =       -53.61032929 eV

  energy without entropy =      -53.61032929  energy(sigma->0) =      -53.61032929


--------------------------------------------------------------------------------------------------------




--------------------------------------- Iteration      1(  11)  ---------------------------------------


    POTLOK:  cpu time    0.0308: real time    0.0308
    SETDIJ:  cpu time    0.0067: real time    0.0067
     EDDAV:  cpu time    1.5631: real time    1.5644
       DOS:  cpu time    0.0004: real time    0.0004
    CHARGE:  cpu time    0.1065: real time    0.1065
    MIXING:  cpu time    0.0016: real time    0.0016
    --------------------------------------------
      LOOP:  cpu time    1.7089: real time    1.7103

 eigenvalue-minimisations  :  2868
 total energy-change (2. order) :-0.3631597E-02  (-0.3937473E-02)
 number of electron      47.9999981 magnetization 
 augmentation part       12.1027173 magnetization 

 Broyden mixing:
  rms(total) = 0.33410E-01    rms(broyden)= 0.33408E-01
  rms(prec ) = 0.44596E-01
  weight for this iteration     100.00

 eigenvalues of (default mixing * dielectric matrix)
  average eigenvalue GAMMA=   1.3208
  2.5359  1.6821  1.1339  1.1339  0.9091  0.5297

 Free energy of the ion-electron system (eV)
  ---------------------------------------------------
  alpha Z        PSCENC =       184.33841299
  Ewald energy   TEWEN  =     -3603.98661611
  -Hartree energ DENC   =     -1224.95982539
  -exchange      EXHF   =         0.00000000
  -V(xc)+E(xc)   XCENC  =       236.18712856
  PAW double counting   =      7189.10630822    -7162.20442052
  entropy T*S    EENTRO =        -0.00000000
  eigenvalues    EBANDS =      -577.75322276
  atomic energy  EATOM  =      4905.65827411
  Solvation  Ediel_sol  =         0.00000000
  ---------------------------------------------------
  free energy    TOTEN  =       -53.61396088 eV

  energy without entropy =      -53.61396088  energy(sigma->0) =      -53.61396088


--------------------------------------------------------------------------------------------------------




--------------------------------------- Iteration      1(  12)  ---------------------------------------


    POTLOK:  cpu time    0.0293: real time    0.0293
    SETDIJ:  cpu time    0.0067: real time    0.0067
     EDDAV:  cpu time    1.6890: real time    1.6906
       DOS:  cpu time    0.0004: real time    0.0004
    CHARGE:  cpu time    0.1021: real time    0.1022
    MIXING:  cpu time    0.0016: real time    0.0016
    --------------------------------------------
      LOOP:  cpu time    1.8292: real time    1.8308

 eigenvalue-minimisations  :  3164
 total energy-change (2. order) : 0.1858367E-03  (-0.4170869E-03)
 number of electron      47.9999981 magnetization 
 augmentation part       12.0949851 magnetization 

 Broyden mixing:
  rms(total) = 0.11643E-01    rms(broyden)= 0.11643E-01
  rms(prec ) = 0.13130E-01
  weight for this iteration     100.00

 eigenvalues of (default mixing * dielectric matrix)
  average eigenvalue GAMMA=   1.3058
  2.6541  1.9403  0.5304  1.0684  1.0684  0.9396  0.9396

 Free energy of the ion-electron system (eV)
  ---------------------------------------------------
  alpha Z        PSCENC =       184.33841299
  Ewald energy   TEWEN  =     -3603.98661611
  -Hartree energ DENC   =     -1225.30399702
  -exchange      EXHF   =         0.00000000
  -V(xc)+E(xc)   XCENC  =       236.19343894
  PAW double counting   =      7170.38721239    -7143.28281900
  entropy T*S    EENTRO =        -0.00000000
  eigenvalues    EBANDS =      -577.61768136
  atomic energy  EATOM  =      4905.65827411
  Solvation  Ediel_sol  =         0.00000000
  ---------------------------------------------------
  free energy    TOTEN  =       -53.61377505 eV

  energy without entropy =      -53.61377505  energy(sigma->0) =      -53.61377505


--------------------------------------------------------------------------------------------------------




--------------------------------------- Iteration      1(  13)  ---------------------------------------


    POTLOK:  cpu time    0.0294: real time    0.0294
    SETDIJ:  cpu time    0.0069: real time    0.0069
     EDDAV:  cpu time    1.5733: real time    1.5746
       DOS:  cpu time    0.0003: real time    0.0003
    CHARGE:  cpu time    0.1072: real time    0.1074
    MIXING:  cpu time    0.0018: real time    0.0018
    --------------------------------------------
      LOOP:  cpu time    1.7190: real time    1.7205

 eigenvalue-minimisations  :  2928
 total energy-change (2. order) :-0.2685332E-04  (-0.3117572E-04)
 number of electron      47.9999981 magnetization 
 augmentation part       12.0936304 magnetization 

 Broyden mixing:
  rms(total) = 0.30060E-02    rms(broyden)= 0.30058E-02
  rms(prec ) = 0.51368E-02
  weight for this iteration     100.00

 eigenvalues of (default mixing * dielectric matrix)
  average eigenvalue GAMMA=   1.3793
  2.7838  2.1508  0.5305  1.2795  1.2795  1.0655  1.0655  0.8788

 Free energy of the ion-electron system (eV)
  ---------------------------------------------------
  alpha Z        PSCENC =       184.33841299
  Ewald energy   TEWEN  =     -3603.98661611
  -Hartree energ DENC   =     -1225.52769155
  -exchange      EXHF   =         0.00000000
  -V(xc)+E(xc)   XCENC  =       236.20768516
  PAW double counting   =      7168.38047594    -7141.10638098
  entropy T*S    EENTRO =        -0.00000000
  eigenvalues    EBANDS =      -577.57796146
  atomic energy  EATOM  =      4905.65827411
  Solvation  Ediel_sol  =         0.00000000
  ---------------------------------------------------
  free energy    TOTEN  =       -53.61380190 eV

  energy without entropy =      -53.61380190  energy(sigma->0) =      -53.61380190


--------------------------------------------------------------------------------------------------------




--------------------------------------- Iteration      1(  14)  ---------------------------------------


    POTLOK:  cpu time    0.0311: real time    0.0311
    SETDIJ:  cpu time    0.0070: real time    0.0070
     EDDAV:  cpu time    1.3075: real time    1.3086
       DOS:  cpu time    0.0003: real time    0.0003
    --------------------------------------------
      LOOP:  cpu time    1.3459: real time    1.3470

 eigenvalue-minimisations  :  2268
 total energy-change (2. order) :-0.9087435E-06  (-0.4193285E-05)
 number of electron      47.9999981 magnetization 
 augmentation part       12.0936304 magnetization 

 Free energy of the ion-electron system (eV)
  ---------------------------------------------------
  alpha Z        PSCENC =       184.33841299
  Ewald energy   TEWEN  =     -3603.98661611
  -Hartree energ DENC   =     -1225.66197509
  -exchange      EXHF   =         0.00000000
  -V(xc)+E(xc)   XCENC  =       236.21324126
  PAW double counting   =      7168.22372776    -7140.82958604
  entropy T*S    EENTRO =        -0.00000000
  eigenvalues    EBANDS =      -577.56928170
  atomic energy  EATOM  =      4905.65827411
  Solvation  Ediel_sol  =         0.00000000
  ---------------------------------------------------
  free energy    TOTEN  =       -53.61380281 eV

  energy without entropy =      -53.61380281  energy(sigma->0) =      -53.61380281


--------------------------------------------------------------------------------------------------------




 average (electrostatic) potential at core
  the test charge radii are     1.0397  0.8742
  (the norm of the test charge is              1.0000)
       1 -75.7636       2 -75.7636       3 -78.9119       4 -78.9119       5 -78.9119
       6 -78.9119
 
 
 
 E-fermi :   5.3614     XC(G=0): -11.4510     alpha+bet :-14.2541

 Fermi energy:         5.3614418506

 k-point     1 :       0.0000    0.0000    0.0000
  band No.  band energies     occupation 
      1     -51.6321      2.00000
      2     -51.6143      2.00000
      3     -27.9451      2.00000
      4     -27.9451      2.00000
      5     -27.7750      2.00000
      6     -27.7750      2.00000
      7     -27.7350      2.00000
      8     -27.7001      2.00000
      9     -12.9573      2.00000
     10     -11.7812      2.00000
     11     -11.0289      2.00000
     12     -11.0289      2.00000
     13      -0.5276      2.00000
     14      -0.1149      2.00000
     15       0.3222      2.00000
     16       1.4256      2.00000
     17       1.4256      2.00000
     18       2.7111      2.00000
     19       2.7111      2.00000
     20       3.2787      2.00000
     21       4.5672      2.00000
     22       4.8257      2.00000
     23       4.8257      2.00000
     24       5.2890      2.00000
     25       7.1474      0.00000
     26       7.4483      0.00000
     27       7.6835      0.00000
     28       7.7797      0.00000

 k-point     2 :       0.1667    0.0000    0.0000
  band No.  band energies     occupation 
      1     -51.6309      2.00000
      2     -51.6156      2.00000
      3     -27.9361      2.00000
      4     -27.9352      2.00000
      5     -27.7860      2.00000
      6     -27.7851      2.00000
      7     -27.7327      2.00000
      8     -27.7025      2.00000
      9     -12.8587      2.00000
     10     -11.7857      2.00000
     11     -11.1266      2.00000
     12     -11.0673      2.00000
     13      -0.3463      2.00000
     14      -0.0013      2.00000
     15       0.5041      2.00000
     16       1.4367      2.00000
     17       1.4449      2.00000
     18       2.5376      2.00000
     19       2.6631      2.00000
     20       3.2923      2.00000
     21       4.3318      2.00000
     22       4.3880      2.00000
     23       4.6036      2.00000
     24       5.1873      2.00000
     25       7.3007      0.00000
     26       7.6421      0.00000
     27       7.8876      0.00000
     28       7.8981      0.00000

 k-point     3 :       0.3333    0.0000    0.0000
  band No.  band energies     occupation 
      1     -51.6276      2.00000
      2     -51.6188      2.00000
      3     -27.9122      2.00000
      4     -27.9099      2.00000
      5     -27.8135      2.00000
      6     -27.8111      2.00000
      7     -27.7263      2.00000
      8     -27.7088      2.00000
      9     -12.5853      2.00000
     10     -11.8879      2.00000
     11     -11.2823      2.00000
     12     -11.1649      2.00000
     13       0.0457      2.00000
     14       0.2511      2.00000
     15       1.0928      2.00000
     16       1.4639      2.00000
     17       1.4788      2.00000
     18       2.2015      2.00000
     19       2.4354      2.00000
     20       3.2665      2.00000
     21       3.3805      2.00000
     22       3.9967      2.00000
     23       4.3865      2.00000
     24       4.8832      2.00000
     25       7.5976      0.00000
     26       7.8561      0.00000
     27       8.1403      0.00000
     28       8.2142      0.00000

 k-point     4 :       0.5000    0.0000    0.0000
  band No.  band energies     occupation 
      1     -51.6232      2.00000
      2     -51.6232      2.00000
      3     -27.8913      2.00000
      4     -27.8913      2.00000
      5     -27.8332      2.00000
      6     -27.8332      2.00000
      7     -27.7175      2.00000
      8     -27.7175      2.00000
      9     -12.2100      2.00000
     10     -12.2100      2.00000
     11     -11.2703      2.00000
     12     -11.2703      2.00000
     13       0.3320      2.00000
     14       0.3320      2.00000
     15       1.4866      2.00000
     16       1.4866      2.00000
     17       2.0144      2.00000
     18       2.0144      2.00000
     19       2.2016      2.00000
     20       2.2016      2.00000
     21       3.6184      2.00000
     22       3.6184      2.00000
     23       4.5365      2.00000
     24       4.5365      2.00000
     25       7.8246      0.00000
     26       7.8246      0.00000
     27       8.3101      0.00000
     28       8.3101      0.00000

 k-point     5 :       0.1667    0.1667    0.0000
  band No.  band energies     occupation 
      1     -51.6298      2.00000
      2     -51.6166      2.00000
      3     -27.9483      2.00000
      4     -27.9086      2.00000
      5     -27.8142      2.00000
      6     -27.7730      2.00000
      7     -27.7306      2.00000
      8     -27.7045      2.00000
      9     -12.7757      2.00000
     10     -11.8041      2.00000
     11     -11.2221      2.00000
     12     -11.0632      2.00000
     13      -0.3514      2.00000
     14       0.2193      2.00000
     15       0.6642      2.00000
     16       1.4076      2.00000
     17       1.4818      2.00000
     18       2.3082      2.00000
     19       2.7647      2.00000
     20       3.3196      2.00000
     21       3.9881      2.00000
     22       4.2918      2.00000
     23       4.4824      2.00000
     24       5.1090      2.00000
     25       7.2256      0.00000
     26       7.7849      0.00000
     27       7.8018      0.00000
     28       8.0750      0.00000

 k-point     6 :       0.3333    0.1667    0.0000
  band No.  band energies     occupation 
      1     -51.6270      2.00000
      2     -51.6194      2.00000
      3     -27.9410      2.00000
      4     -27.8916      2.00000
      5     -27.8329      2.00000
      6     -27.7820      2.00000
      7     -27.7251      2.00000
      8     -27.7100      2.00000
      9     -12.5462      2.00000
     10     -11.9380      2.00000
     11     -11.2999      2.00000
     12     -11.1338      2.00000
     13      -0.1843      2.00000
     14       0.3853      2.00000
     15       1.1797      2.00000
     16       1.4124      2.00000
     17       1.4872      2.00000
     18       2.1912      2.00000
     19       2.6190      2.00000
     20       3.4031      2.00000
     21       3.4446      2.00000
     22       4.0285      2.00000
     23       4.1817      2.00000
     24       4.7850      2.00000
     25       7.4000      0.00000
     26       7.8653      0.00000
     27       7.9172      0.00000
     28       8.3198      0.00000

 k-point     7 :       0.5000    0.1667    0.0000
  band No.  band energies     occupation 
      1     -51.6232      2.00000
      2     -51.6232      2.00000
      3     -27.9163      2.00000
      4     -27.9163      2.00000
      5     -27.8084      2.00000
      6     -27.8084      2.00000
      7     -27.7175      2.00000
      8     -27.7175      2.00000
      9     -12.2301      2.00000
     10     -12.2301      2.00000
     11     -11.2419      2.00000
     12     -11.2419      2.00000
     13       0.1449      2.00000
     14       0.1449      2.00000
     15       1.4509      2.00000
     16       1.4509      2.00000
     17       1.9002      2.00000
     18       1.9002      2.00000
     19       2.7298      2.00000
     20       2.7298      2.00000
     21       3.7024      2.00000
     22       3.7024      2.00000
     23       4.3497      2.00000
     24       4.3497      2.00000
     25       7.6984      0.00000
     26       7.6984      0.00000
     27       8.1795      0.00000
     28       8.1795      0.00000

 k-point     8 :       0.3333    0.3333    0.0000
  band No.  band energies     occupation 
      1     -51.6254      2.00000
      2     -51.6210      2.00000
      3     -27.9548      2.00000
      4     -27.9189      2.00000
      5     -27.8064      2.00000
      6     -27.7691      2.00000
      7     -27.7218      2.00000
      8     -27.7131      2.00000
      9     -12.4343      2.00000
     10     -12.0821      2.00000
     11     -11.2671      2.00000
     12     -11.1297      2.00000
     13      -0.3080      2.00000
     14       0.1647      2.00000
     15       1.3719      2.00000
     16       1.4410      2.00000
     17       1.5534      2.00000
     18       2.4043      2.00000
     19       2.9307      2.00000
     20       3.4610      2.00000
     21       3.6335      2.00000
     22       3.7746      2.00000
     23       4.0240      2.00000
     24       4.5855      2.00000
     25       7.2092      0.00000
     26       7.7011      0.00000
     27       7.7961      0.00000
     28       8.1837      0.00000

 k-point     9 :       0.5000    0.3333    0.0000
  band No.  band energies     occupation 
      1     -51.6232      2.00000
      2     -51.6232      2.00000
      3     -27.9464      2.00000
      4     -27.9464      2.00000
      5     -27.7785      2.00000
      6     -27.7785      2.00000
      7     -27.7175      2.00000
      8     -27.7175      2.00000
      9     -12.2676      2.00000
     10     -12.2676      2.00000
     11     -11.1879      2.00000
     12     -11.1879      2.00000
     13      -0.1688      2.00000
     14      -0.1688      2.00000
     15       1.3848      2.00000
     16       1.3848      2.00000
     17       2.1359      2.00000
     18       2.1359      2.00000
     19       3.2033      2.00000
     20       3.2033      2.00000
     21       3.8722      2.00000
     22       3.8722      2.00000
     23       4.1009      2.00000
     24       4.1009      2.00000
     25       7.3868      0.00000
     26       7.3868      0.00000
     27       7.9265      0.00000
     28       7.9265      0.00000

 k-point    10 :       0.5000    0.5000    0.0000
  band No.  band energies     occupation 
      1     -51.6231      2.00000
      2     -51.6231      2.00000
      3     -27.9580      2.00000
      4     -27.9580      2.00000
      5     -27.7671      2.00000
      6     -27.7671      2.00000
      7     -27.7174      2.00000
      8     -27.7174      2.00000
      9     -12.2851      2.00000
     10     -12.2851      2.00000
     11     -11.1620      2.00000
     12     -11.1620      2.00000
     13      -0.3034      2.00000
     14      -0.3034      2.00000
     15       1.3541      2.00000
     16       1.3541      2.00000
     17       2.4066      2.00000
     18       2.4066      2.00000
     19       3.0809      2.00000
     20       3.0809      2.00000
     21       3.9590      2.00000
     22       3.9590      2.00000
     23       4.2068      2.00000
     24       4.2068      2.00000
     25       7.1878      0.00000
     26       7.1878      0.00000
     27       7.8021      0.00000
     28       7.8021      0.00000

 k-point    11 :       0.0000    0.0000    0.1667
  band No.  band energies     occupation 
      1     -51.6207      2.00000
      2     -51.6053      2.00000
      3     -27.9147      2.00000
      4     -27.9147      2.00000
      5     -27.8499      2.00000
      6     -27.8212      2.00000
      7     -27.7702      2.00000
      8     -27.7702      2.00000
      9     -12.6752      2.00000
     10     -11.6261      2.00000
     11     -11.1616      2.00000
     12     -11.1616      2.00000
     13      -0.1371      2.00000
     14       0.1773      2.00000
     15       0.6410      2.00000
     16       1.1959      2.00000
     17       1.1959      2.00000
     18       2.5317      2.00000
     19       3.1885      2.00000
     20       3.1885      2.00000
     21       3.5723      2.00000
     22       4.2998      2.00000
     23       4.2998      2.00000
     24       5.1230      2.00000
     25       7.5379      0.00000
     26       7.6693      0.00000
     27       7.7175      0.00000
     28       8.1160      0.00000

 k-point    12 :       0.1667    0.0000    0.1667
  band No.  band energies     occupation 
      1     -51.6196      2.00000
      2     -51.6063      2.00000
      3     -27.9102      2.00000
      4     -27.9061      2.00000
      5     -27.8459      2.00000
      6     -27.8291      2.00000
      7     -27.7776      2.00000
      8     -27.7736      2.00000
      9     -12.5882      2.00000
     10     -11.6189      2.00000
     11     -11.2545      2.00000
     12     -11.1914      2.00000
     13       0.0125      2.00000
     14       0.2988      2.00000
     15       0.7085      2.00000
     16       1.1758      2.00000
     17       1.3647      2.00000
     18       2.4269      2.00000
     19       2.9019      2.00000
     20       3.1934      2.00000
     21       3.3754      2.00000
     22       4.2136      2.00000
     23       4.2305      2.00000
     24       5.0206      2.00000
     25       7.5728      0.00000
     26       7.8432      0.00000
     27       7.8724      0.00000
     28       8.1160      0.00000

 k-point    13 :       0.3333    0.0000    0.1667
  band No.  band energies     occupation 
      1     -51.6168      2.00000
      2     -51.6091      2.00000
      3     -27.8965      2.00000
      4     -27.8834      2.00000
      5     -27.8493      2.00000
      6     -27.8404      2.00000
      7     -27.7932      2.00000
      8     -27.7830      2.00000
      9     -12.3463      2.00000
     10     -11.6952      2.00000
     11     -11.3996      2.00000
     12     -11.2690      2.00000
     13       0.3650      2.00000
     14       0.5823      2.00000
     15       0.9181      2.00000
     16       1.1295      2.00000
     17       1.7321      2.00000
     18       2.3685      2.00000
     19       2.3762      2.00000
     20       2.9114      2.00000
     21       2.9427      2.00000
     22       3.7939      2.00000
     23       4.3198      2.00000
     24       4.8061      2.00000
     25       7.7778      0.00000
     26       8.0622      0.00000
     27       8.1267      0.00000
     28       8.2574      0.00000

 k-point    14 :       0.5000    0.0000    0.1667
  band No.  band energies     occupation 
      1     -51.6129      2.00000
      2     -51.6129      2.00000
      3     -27.8751      2.00000
      4     -27.8751      2.00000
      5     -27.8542      2.00000
      6     -27.8542      2.00000
      7     -27.7944      2.00000
      8     -27.7944      2.00000
      9     -12.0076      2.00000
     10     -12.0076      2.00000
     11     -11.3614      2.00000
     12     -11.3614      2.00000
     13       0.6590      2.00000
     14       0.6590      2.00000
     15       1.1217      2.00000
     16       1.1217      2.00000
     17       1.9492      2.00000
     18       1.9492      2.00000
     19       2.5569      2.00000
     20       2.5569      2.00000
     21       3.0985      2.00000
     22       3.0985      2.00000
     23       4.5782      2.00000
     24       4.5782      2.00000
     25       7.9784      0.00000
     26       7.9784      0.00000
     27       8.3762      0.00000
     28       8.3762      0.00000

 k-point    15 :       0.1667    0.1667    0.1667
  band No.  band energies     occupation 
      1     -51.6187      2.00000
      2     -51.6072      2.00000
      3     -27.9176      2.00000
      4     -27.8887      2.00000
      5     -27.8469      2.00000
      6     -27.8342      2.00000
      7     -27.7879      2.00000
      8     -27.7685      2.00000
      9     -12.5138      2.00000
     10     -11.6241      2.00000
     11     -11.3405      2.00000
     12     -11.1928      2.00000
     13      -0.0162      2.00000
     14       0.5303      2.00000
     15       0.7267      2.00000
     16       1.2394      2.00000
     17       1.4348      2.00000
     18       2.2761      2.00000
     19       2.9200      2.00000
     20       3.1194      2.00000
     21       3.1971      2.00000
     22       4.1833      2.00000
     23       4.2270      2.00000
     24       4.8972      2.00000
     25       7.6043      0.00000
     26       7.6593      0.00000
     27       8.0559      0.00000
     28       8.3255      0.00000

 k-point    16 :       0.3333    0.1667    0.1667
  band No.  band energies     occupation 
      1     -51.6162      2.00000
      2     -51.6096      2.00000
      3     -27.9130      2.00000
      4     -27.8694      2.00000
      5     -27.8641      2.00000
      6     -27.8322      2.00000
      7     -27.7950      2.00000
      8     -27.7728      2.00000
      9     -12.3079      2.00000
     10     -11.7442      2.00000
     11     -11.4040      2.00000
     12     -11.2513      2.00000
     13       0.1325      2.00000
     14       0.7242      2.00000
     15       0.8306      2.00000
     16       1.1308      2.00000
     17       1.8143      2.00000
     18       2.2568      2.00000
     19       2.7001      2.00000
     20       2.8087      2.00000
     21       3.2343      2.00000
     22       3.8487      2.00000
     23       4.1793      2.00000
     24       4.6356      2.00000
     25       7.7448      0.00000
     26       7.8521      0.00000
     27       8.0846      0.00000
     28       8.4323      0.00000

 k-point    17 :       0.5000    0.1667    0.1667
  band No.  band energies     occupation 
      1     -51.6129      2.00000
      2     -51.6129      2.00000
      3     -27.8949      2.00000
      4     -27.8949      2.00000
      5     -27.8432      2.00000
      6     -27.8432      2.00000
      7     -27.7858      2.00000
      8     -27.7858      2.00000
      9     -12.0217      2.00000
     10     -12.0217      2.00000
     11     -11.3410      2.00000
     12     -11.3410      2.00000
     13       0.4648      2.00000
     14       0.4648      2.00000
     15       0.9926      2.00000
     16       0.9926      2.00000
     17       2.1803      2.00000
     18       2.1803      2.00000
     19       2.8156      2.00000
     20       2.8156      2.00000
     21       3.1945      2.00000
     22       3.1945      2.00000
     23       4.3833      2.00000
     24       4.3833      2.00000
     25       7.9398      0.00000
     26       7.9398      0.00000
     27       8.2519      0.00000
     28       8.2519      0.00000

 k-point    18 :       0.3333    0.3333    0.1667
  band No.  band energies     occupation 
      1     -51.6148      2.00000
      2     -51.6110      2.00000
      3     -27.9233      2.00000
      4     -27.8966      2.00000
      5     -27.8484      2.00000
      6     -27.8298      2.00000
      7     -27.7850      2.00000
      8     -27.7651      2.00000
      9     -12.2011      2.00000
     10     -11.8795      2.00000
     11     -11.3678      2.00000
     12     -11.2539      2.00000
     13       0.0069      2.00000
     14       0.4879      2.00000
     15       0.7944      2.00000
     16       0.9898      2.00000
     17       2.2196      2.00000
     18       2.5146      2.00000
     19       3.0129      2.00000
     20       3.0897      2.00000
     21       3.2329      2.00000
     22       3.8510      2.00000
     23       3.9533      2.00000
     24       4.2299      2.00000
     25       7.6171      0.00000
     26       7.8675      0.00000
     27       8.0228      0.00000
     28       8.3003      0.00000

 k-point    19 :       0.5000    0.3333    0.1667
  band No.  band energies     occupation 
      1     -51.6129      2.00000
      2     -51.6129      2.00000
      3     -27.9175      2.00000
      4     -27.9175      2.00000
      5     -27.8367      2.00000
      6     -27.8367      2.00000
      7     -27.7703      2.00000
      8     -27.7703      2.00000
      9     -12.0477      2.00000
     10     -12.0477      2.00000
     11     -11.3023      2.00000
     12     -11.3023      2.00000
     13       0.1445      2.00000
     14       0.1445      2.00000
     15       0.8597      2.00000
     16       0.8597      2.00000
     17       2.6495      2.00000
     18       2.6495      2.00000
     19       3.0936      2.00000
     20       3.0936      2.00000
[...]
     26       8.2420      0.00000
     27       8.2480      0.00000
     28       8.2497      0.00000

 k-point    31 :       0.0000    0.0000    0.5000
  band No.  band energies     occupation 
      1     -51.5884      2.00000
      2     -51.5884      2.00000
      3     -28.1783      2.00000
      4     -28.1783      2.00000
      5     -27.8048      2.00000
      6     -27.8048      2.00000
      7     -27.7851      2.00000
      8     -27.7851      2.00000
      9     -11.5475      2.00000
     10     -11.5475      2.00000
     11     -11.4857      2.00000
     12     -11.4857      2.00000
     13       0.7522      2.00000
     14       0.7522      2.00000
     15       1.5371      2.00000
     16       1.5371      2.00000
     17       1.6414      2.00000
     18       1.6414      2.00000
     19       2.4955      2.00000
     20       2.4955      2.00000
     21       2.8809      2.00000
     22       2.8809      2.00000
     23       3.8603      2.00000
     24       3.8603      2.00000
     25       8.2736      0.00000
     26       8.2736      0.00000
     27       8.4573      0.00000
     28       8.4573      0.00000

 k-point    32 :       0.1667    0.0000    0.5000
  band No.  band energies     occupation 
      1     -51.5884      2.00000
      2     -51.5884      2.00000
      3     -28.1813      2.00000
      4     -28.1813      2.00000
      5     -27.8021      2.00000
      6     -27.8021      2.00000
      7     -27.7849      2.00000
      8     -27.7849      2.00000
      9     -11.6993      2.00000
     10     -11.6993      2.00000
     11     -11.3269      2.00000
     12     -11.3269      2.00000
     13       0.6446      2.00000
     14       0.6446      2.00000
     15       1.1882      2.00000
     16       1.1882      2.00000
     17       1.9541      2.00000
     18       1.9541      2.00000
     19       2.5568      2.00000
     20       2.5568      2.00000
     21       3.1897      2.00000
     22       3.1897      2.00000
     23       3.7523      2.00000
     24       3.7523      2.00000
     25       8.0004      0.00000
     26       8.0004      0.00000
     27       8.4632      0.00000
     28       8.4632      0.00000

 k-point    33 :       0.3333    0.0000    0.5000
  band No.  band energies     occupation 
      1     -51.5883      2.00000
      2     -51.5883      2.00000
      3     -28.1871      2.00000
      4     -28.1871      2.00000
      5     -27.7970      2.00000
      6     -27.7970      2.00000
      7     -27.7842      2.00000
      8     -27.7842      2.00000
      9     -11.8262      2.00000
     10     -11.8262      2.00000
     11     -11.1859      2.00000
     12     -11.1859      2.00000
     13       0.3329      2.00000
     14       0.3329      2.00000
     15       1.1852      2.00000
     16       1.1852      2.00000
     17       2.0038      2.00000
     18       2.0038      2.00000
     19       2.7323      2.00000
     20       2.7323      2.00000
     21       3.4436      2.00000
     22       3.4436      2.00000
     23       3.8882      2.00000
     24       3.8882      2.00000
     25       7.4804      0.00000
     26       7.4804      0.00000
     27       8.4738      0.00000
     28       8.4738      0.00000

 k-point    34 :       0.5000    0.0000    0.5000
  band No.  band energies     occupation 
      1     -51.5883      2.00000
      2     -51.5883      2.00000
      3     -28.1899      2.00000
      4     -28.1899      2.00000
      5     -27.7948      2.00000
      6     -27.7948      2.00000
      7     -27.7837      2.00000
      8     -27.7837      2.00000
      9     -11.8721      2.00000
     10     -11.8721      2.00000
     11     -11.1328      2.00000
     12     -11.1328      2.00000
     13       0.1907      2.00000
     14       0.1907      2.00000
     15       1.2379      2.00000
     16       1.2379      2.00000
     17       1.9871      2.00000
     18       1.9871      2.00000
     19       2.8914      2.00000
     20       2.8914      2.00000
     21       3.2406      2.00000
     22       3.2406      2.00000
     23       4.2404      2.00000
     24       4.2404      2.00000
     25       7.1889      0.00000
     26       7.1889      0.00000
     27       8.4784      0.00000
     28       8.4784      0.00000

 k-point    35 :       0.1667    0.1667    0.5000
  band No.  band energies     occupation 
      1     -51.5884      2.00000
      2     -51.5884      2.00000
      3     -28.1862      2.00000
      4     -28.1792      2.00000
      5     -27.8054      2.00000
      6     -27.7964      2.00000
      7     -27.7855      2.00000
      8     -27.7844      2.00000
      9     -11.8269      2.00000
     10     -11.5716      2.00000
     11     -11.4560      2.00000
     12     -11.1879      2.00000
     13       0.3865      2.00000
     14       0.9106      2.00000
     15       1.1059      2.00000
     16       1.1117      2.00000
     17       1.3469      2.00000
     18       2.4944      2.00000
     19       2.6248      2.00000
     20       2.7008      2.00000
     21       3.1423      2.00000
     22       3.5220      2.00000
     23       3.5790      2.00000
     24       3.8738      2.00000
     25       7.6684      0.00000
     26       8.1745      0.00000
     27       8.4661      0.00000
     28       8.4669      0.00000

 k-point    36 :       0.3333    0.1667    0.5000
  band No.  band energies     occupation 
      1     -51.5883      2.00000
      2     -51.5883      2.00000
      3     -28.1889      2.00000
      4     -28.1820      2.00000
      5     -27.8031      2.00000
      6     -27.7943      2.00000
      7     -27.7853      2.00000
      8     -27.7843      2.00000
      9     -11.8744      2.00000
     10     -11.7074      2.00000
     11     -11.3102      2.00000
     12     -11.1303      2.00000
     13       0.2045      2.00000
     14       0.5249      2.00000
     15       1.1090      2.00000
     16       1.2354      2.00000
     17       1.3903      2.00000
     18       2.3265      2.00000
     19       2.6745      2.00000
     20       2.7555      2.00000
     21       3.3355      2.00000
     22       3.7873      2.00000
     23       3.8913      2.00000
     24       4.1141      2.00000
     25       7.3436      0.00000
     26       7.7527      0.00000
     27       8.4771      0.00000
     28       8.4774      0.00000

 k-point    37 :       0.5000    0.1667    0.5000
  band No.  band energies     occupation 
      1     -51.5884      2.00000
      2     -51.5884      2.00000
      3     -28.1869      2.00000
      4     -28.1869      2.00000
      5     -27.7976      2.00000
      6     -27.7976      2.00000
      7     -27.7847      2.00000
      8     -27.7847      2.00000
      9     -11.8304      2.00000
     10     -11.8304      2.00000
     11     -11.1758      2.00000
     12     -11.1758      2.00000
     13       0.2273      2.00000
     14       0.2273      2.00000
     15       1.1697      2.00000
     16       1.1697      2.00000
     17       1.8709      2.00000
     18       1.8709      2.00000
     19       2.7040      2.00000
     20       2.7040      2.00000
     21       3.5593      2.00000
     22       3.5593      2.00000
     23       4.3164      2.00000
     24       4.3164      2.00000
     25       7.3130      0.00000
     26       7.3130      0.00000
     27       8.4834      0.00000
     28       8.4834      0.00000

 k-point    38 :       0.3333    0.3333    0.5000
  band No.  band energies     occupation 
      1     -51.5883      2.00000
      2     -51.5883      2.00000
      3     -28.1858      2.00000
      4     -28.1787      2.00000
      5     -27.8066      2.00000
      6     -27.7975      2.00000
      7     -27.7863      2.00000
      8     -27.7851      2.00000
      9     -11.8351      2.00000
     10     -11.6189      2.00000
     11     -11.3969      2.00000
     12     -11.1678      2.00000
     13       0.1878      2.00000
     14       0.6640      2.00000
     15       0.8396      2.00000
     16       1.0259      2.00000
     17       1.4210      2.00000
     18       2.1966      2.00000
     19       2.5132      2.00000
     20       2.6404      2.00000
     21       3.6852      2.00000
     22       3.9268      2.00000
     23       4.1991      2.00000
     24       4.4370      2.00000
     25       7.3667      0.00000
     26       7.9836      0.00000
     27       8.4283      0.00000
     28       8.5161      0.00000

 k-point    39 :       0.5000    0.3333    0.5000
  band No.  band energies     occupation 
      1     -51.5883      2.00000
      2     -51.5883      2.00000
      3     -28.1807      2.00000
      4     -28.1807      2.00000
      5     -27.8038      2.00000
      6     -27.8038      2.00000
      7     -27.7861      2.00000
      8     -27.7861      2.00000
      9     -11.7238      2.00000
     10     -11.7238      2.00000
     11     -11.2846      2.00000
     12     -11.2846      2.00000
     13       0.3490      2.00000
     14       0.3490      2.00000
     15       0.9276      2.00000
     16       0.9276      2.00000
     17       1.7426      2.00000
     18       1.7426      2.00000
     19       2.5726      2.00000
     20       2.5726      2.00000
     21       3.8752      2.00000
     22       3.8752      2.00000
     23       4.5079      2.00000
     24       4.5079      2.00000
     25       7.6308      0.00000
     26       7.6308      0.00000
     27       8.4933      0.00000
     28       8.4934      0.00000

 k-point    40 :       0.5000    0.5000    0.5000
  band No.  band energies     occupation 
      1     -51.5883      2.00000
      2     -51.5883      2.00000
      3     -28.1775      2.00000
      4     -28.1775      2.00000
      5     -27.8072      2.00000
      6     -27.8072      2.00000
      7     -27.7867      2.00000
      8     -27.7867      2.00000
      9     -11.6421      2.00000
     10     -11.6421      2.00000
     11     -11.3675      2.00000
     12     -11.3675      2.00000
     13       0.5166      2.00000
     14       0.5166      2.00000
     15       0.6787      2.00000
     16       0.6787      2.00000
     17       1.7214      2.00000
     18       1.7214      2.00000
     19       2.5265      2.00000
     20       2.5265      2.00000
     21       3.9779      2.00000
     22       3.9779      2.00000
     23       4.6199      2.00000
     24       4.6199      2.00000
     25       7.8933      0.00000
     26       7.8933      0.00000
     27       8.4848      0.00000
     28       8.4857      0.00000


--------------------------------------------------------------------------------------------------------


 soft charge-density along one line, spin component           1
         0         1         2         3         4         5         6         7         8         9
 total charge-density along one line
 
 pseudopotential strength for first ion, spin component:           1
 -3.447 -21.325   0.000  -0.000   0.000  -0.000   0.000  -0.000
-21.325   9.120   0.000  -0.000   0.000   0.000  -0.000   0.000
  0.000   0.000 -24.522   0.000   0.006   8.539  -0.000  -0.004
 -0.000  -0.000   0.000 -24.539   0.000  -0.000   8.549  -0.000
  0.000   0.000   0.006   0.000 -24.522  -0.004  -0.000   8.539
 -0.000   0.000   8.539  -0.000  -0.004   5.873   0.000   0.001
  0.000  -0.000  -0.000   8.549  -0.000   0.000   5.871   0.000
 -0.000   0.000  -0.004  -0.000   8.539   0.001   0.000   5.873
  0.004   0.002   0.000  -0.000   0.000  -0.000   0.000  -0.000
  0.000   0.000  -0.000   0.000  -0.000   0.000  -0.000   0.000
 -0.008  -0.001  -0.000  -0.000  -0.000   0.000   0.000   0.000
  0.000   0.000  -0.000   0.000  -0.000   0.000  -0.000   0.000
 -0.000  -0.000  -0.000  -0.000   0.000   0.000   0.000  -0.000
  0.005   0.002   0.000  -0.000   0.000  -0.000   0.000  -0.000
  0.000   0.000  -0.000   0.000  -0.000   0.000  -0.000   0.000
 -0.010  -0.002  -0.000  -0.000  -0.000   0.000   0.000   0.000
  0.000   0.000  -0.000   0.000  -0.000   0.000  -0.000   0.000
 -0.000  -0.000  -0.000  -0.000   0.000   0.000   0.000  -0.000
 total augmentation occupancy for first ion, spin component:           1
  1.990  -0.108   0.000   0.000   0.000   0.000   0.000   0.000   0.001   0.000   0.013   0.000   0.000  -0.002   0.000  -0.010
 -0.108   1.505   0.000   0.000   0.000   0.000   0.000   0.000   0.088   0.000   0.372   0.000   0.000  -0.073   0.000  -0.269
  0.000   0.000   1.968   0.000  -0.000  -0.071   0.000  -0.000   0.000   0.000   0.000   0.000   0.000   0.000   0.000   0.000
  0.000   0.000   0.000   1.969   0.000   0.000  -0.067   0.000   0.000   0.000   0.000   0.000   0.000   0.000   0.000   0.000
  0.000   0.000  -0.000   0.000   1.968  -0.000   0.000  -0.071   0.000   0.000   0.000   0.000   0.000   0.000   0.000   0.000
  0.000   0.000  -0.071   0.000  -0.000   0.194   0.000  -0.001   0.000   0.000   0.000   0.000   0.000   0.000   0.000   0.000
  0.000   0.000   0.000  -0.067   0.000   0.000   0.220   0.000   0.000   0.000   0.000   0.000   0.000   0.000   0.000   0.000
  0.000   0.000  -0.000   0.000  -0.071  -0.001   0.000   0.194   0.000   0.000   0.000   0.000   0.000   0.000   0.000   0.000
  0.001   0.088   0.000   0.000   0.000   0.000   0.000   0.000   6.253   0.000  -2.921   0.000  -0.000  -3.941   0.000   1.952
  0.000   0.000   0.000   0.000   0.000   0.000   0.000   0.000   0.000   5.565   0.000  -3.192   0.000   0.000  -3.460   0.000
  0.013   0.372   0.000   0.000   0.000   0.000   0.000   0.000  -2.921   0.000   4.686   0.000   0.000   1.954   0.000  -2.973
  0.000   0.000   0.000   0.000   0.000   0.000   0.000   0.000   0.000  -3.192   0.000   5.565   0.000   0.000   2.129   0.000
  0.000   0.000   0.000   0.000   0.000   0.000   0.000   0.000  -0.000   0.000   0.000   0.000   2.023   0.000   0.000  -0.000
 -0.002  -0.073   0.000   0.000   0.000   0.000   0.000   0.000  -3.941   0.000   1.954   0.000   0.000   2.534   0.000  -1.323
  0.000   0.000   0.000   0.000   0.000   0.000   0.000   0.000   0.000  -3.460   0.000   2.129   0.000   0.000   2.197   0.000
 -0.010  -0.269   0.000   0.000   0.000   0.000   0.000   0.000   1.952   0.000  -2.973   0.000  -0.000  -1.323   0.000   1.912
  0.000   0.000   0.000   0.000   0.000   0.000   0.000   0.000   0.000   2.129   0.000  -3.460   0.000   0.000  -1.439   0.000
 -0.000  -0.000   0.000   0.000   0.000   0.000   0.000   0.000   0.000   0.000  -0.000   0.000  -1.065  -0.000   0.000   0.000


------------------------ aborting loop because EDIFF is reached ----------------------------------------


    CHARGE:  cpu time    0.1106: real time    0.1108
    FORLOC:  cpu time    0.0040: real time    0.0040
    FORNL :  cpu time    0.5509: real time    0.5514
    FORCOR:  cpu time    0.0349: real time    0.0349
    FORHAR:  cpu time    0.0087: real time    0.0087
    MIXING:  cpu time    0.0014: real time    0.0014
    OFIELD:  cpu time    0.0000: real time    0.0000

 VOLUME and BASIS-vectors are now :
 -----------------------------------------------------------------------------
  energy-cutoff  :      500.00
  volume of cell :       62.05
      direct lattice vectors                 reciprocal lattice vectors
     4.584000000  0.000000000  0.000000000     0.218150087  0.000000000  0.000000000
     0.000000000  4.584000000  0.000000000     0.000000000  0.218150087  0.000000000
     0.000000000  0.000000000  2.953000000     0.000000000  0.000000000  0.338638673

  length of vectors
     4.584000000  4.584000000  2.953000000     0.218150087  0.218150087  0.338638673


 FORCES acting on ions
    electron-ion (+dipol)            ewald-force                    non-local-force                 convergence-correction
 -----------------------------------------------------------------------------------------------
   -.300E-13 -.519E-13 -.709E-13   0.142E-12 0.142E-12 0.108E-13   -.291E-23 -.255E-23 0.209E-23   -.360E-12 -.155E-12 -.155E-12
   0.117E-11 0.414E-11 0.300E-11   0.284E-13 -.114E-12 0.130E-13   0.778E-24 -.246E-23 0.153E-23   -.392E-12 -.964E-15 0.204E-12
   -.416E+02 0.416E+02 -.226E-12   0.454E+02 -.454E+02 -.869E-14   -.383E+01 0.383E+01 -.106E-18   0.125E-01 -.125E-01 0.522E-13
   0.416E+02 -.416E+02 -.617E-11   -.454E+02 0.454E+02 -.884E-14   0.383E+01 -.383E+01 -.236E-18   -.125E-01 0.125E-01 0.333E-12
   0.416E+02 0.416E+02 0.175E-06   -.454E+02 -.454E+02 -.855E-14   0.383E+01 0.383E+01 0.124E-17   -.125E-01 -.125E-01 -.845E-13
   -.416E+02 -.416E+02 -.175E-06   0.454E+02 0.454E+02 -.856E-14   -.383E+01 -.383E+01 0.147E-17   0.125E-01 0.125E-01 -.162E-12
 -----------------------------------------------------------------------------------------------
   0.604E-11 0.650E-11 0.298E-11   -.711E-14 -.142E-13 -.108E-13   0.000E+00 0.444E-15 0.237E-17   -.758E-12 0.224E-13 0.187E-12
 
 
 POSITION                                       TOTAL-FORCE (eV/Angst)
 -----------------------------------------------------------------------------------
      0.00000     -0.00000      0.00000         0.000000     -0.000000      0.000000
      2.29200      2.29200      1.47650        -0.000000     -0.000000      0.000000
      0.89955      3.68445      1.47650        -0.003273      0.003273     -0.000000
      3.68445      0.89955      1.47650         0.003273     -0.003273      0.000000
      1.39245      1.39245     -0.00000         0.003273      0.003273     -0.000000
      3.19155      3.19155     -0.00000        -0.003273     -0.003273      0.000000
 -----------------------------------------------------------------------------------
    total drift:                                0.000000      0.000000      0.000000


--------------------------------------------------------------------------------------------------------



  FREE ENERGIE OF THE ION-ELECTRON SYSTEM (eV)
  ---------------------------------------------------
  free  energy   TOTEN  =       -53.61492209 eV

  energy  without entropy=      -53.61492209  energy(sigma->0) =      -53.61492209
 
 d Force = 0.1113532E-02[-0.981E-04, 0.233E-02]  d Energy = 0.1119283E-02-0.575E-05
 d Force = 0.1388294E+01[ 0.136E+01, 0.142E+01]  d Ewald  = 0.1388303E+01-0.893E-05


--------------------------------------------------------------------------------------------------------


    POTLOK:  cpu time    0.0358: real time    0.0358


--------------------------------------------------------------------------------------------------------


 Quasi-Newton relaxation of ions (Broydens 2nd method)
  g(Force)  = 0.414E-05   g(Stress)= 0.000E+00

 retain information from N=  1 steps
 eigenvalues of (default step * inverse Hessian matrix)
  average eigenvalue of G=   0.9595
 eigenvalue spectrum of G is  0.9595


--------------------------------------------------------------------------------------------------------


  
 reached required accuracy - stopping structural energy minimisation
 writing wavefunctions
     LOOP+:  cpu time    8.5116: real time    9.5907
    4ORBIT:  cpu time    0.0000: real time    0.0000

 total amount of memory used by VASP MPI-rank0    88673. kBytes
=======================================================================

   base      :      30000. kBytes
   nonl-proj :      18620. kBytes
   fftplans  :       3632. kBytes
   grid      :       6384. kBytes
   one-center:         93. kBytes
   wavefun   :      29944. kBytes
 
  
  
 General timing and accounting informations for this job:
 ========================================================
  
                  Total CPU time used (sec):       32.960
                            User time (sec):       32.512
                          System time (sec):        0.448
                         Elapsed time (sec):       35.109
  
                   Maximum memory used (kb):      235828.
                   Average memory used (kb):          N/A
  
                          Minor page faults:        45229
                          Major page faults:          515
                 Voluntary context switches:         3715
