 vasp.6.2.0 18Jan21 (build Oct 14 2021 17:49:53) complex                        
  
 executed on             LinuxIFC date 2022.04.02  12:32:02
 running on    1 total cores
 distrk:  each k-point on    1 cores,    1 groups
 distr:  one band on NCORE=   1 cores,    1 groups


--------------------------------------------------------------------------------------------------------


 INCAR:
   SYSTEM = TiO2
   ISTART = 1
   ICHARG = 11
   ISMEAR = 0
   SIGMA = 0.01
   LOUT = 10
   ENCUT = 500
   EDIFF = 0.1E-04
   LDAU = .TRUE.
   LDAUTYPE = 2
   LDAUL = 2 -1
   LDAUU = 3.90 0.00
   LDAUJ = 0.00 0.00
   LDAUPRINT = 2
   LMAXMIX = 4

 POTCAR:    PAW_PBE Ti_sv 26Sep2005               
 POTCAR:   PAW_PBE O_s 07Sep2000                  
 POTCAR:    PAW_PBE Ti_sv 26Sep2005               
   SHA256 =  4d747badb5a5ea28d858fbac70885b3f8929d6fd9e5b0dbe1ecb9878dc164da1 Ti_sv/POTCAR          
   COPYR  = (c) Copyright 26Sep2005 Georg Kresse                                                    
   COPYR  = This file is part of the software VASP. Any use, copying, and all other rights are regul
   COPYR  = If you do not have a valid VASP license, you may not use, copy or distribute this file. 
   VRHFIN =Ti: 3p4s3d                                                                               
   LEXCH  = PE                                                                                      
   EATOM  =  1588.0892 eV,  116.7213 Ry                                                             
                                                                                                    
   TITEL  = PAW_PBE Ti_sv 26Sep2005                                                                 
   LULTRA =        F    use ultrasoft PP ?                                                          
   IUNSCR =        1    unscreen: 0-lin 1-nonlin 2-no                                               
   RPACOR =    2.000    partial core radius                                                         
   POMASS =   47.880; ZVAL   =   12.000    mass and valenz                                          
   RCORE  =    2.300    outmost cutoff radius                                                       
   RWIGS  =    2.300; RWIGS  =    1.217    wigner-seitz radius (au A)                               
   ENMAX  =  274.610; ENMIN  =  205.957 eV                                                          
   ICORE  =        3    local potential                                                             
   LCOR   =        T    correct aug charges                                                         
   LPAW   =        T    paw PP                                                                      
   EAUG   =  482.848                                                                                
   RMAX   =    2.348    core radius for proj-oper                                                   
   RAUG   =    1.300    factor for augmentation sphere                                              
   RDEP   =    2.381    radius for radial grids                                                     
   RDEPT  =    1.930    core radius for aug-charge                                                  
                                                                                                    
   Atomic configuration                                                                             
    8 entries                                                                                       
     n  l   j            E        occ.                                                              
     1  0  0.50     -4865.3608   2.0000                                                             
     2  0  0.50      -533.1368   2.0000                                                             
     2  1  1.50      -440.5031   6.0000                                                             
     3  0  0.50       -59.3186   2.0000                                                             
     4  0  0.50        -3.7291   1.0000                                                             
     3  1  1.50       -35.7012   6.0000                                                             
     3  2  2.50        -1.9157   3.0000                                                             
     4  3  2.50        -1.3606   0.0000                                                             
   Description                                                                                      
     l       E           TYP  RCUT    TYP  RCUT                                                     
     0    -59.3185931     23  1.800                                                                 
     0     -3.7290822     23  2.300                                                                 
     1    -35.7012045     23  2.300                                                                 
     1     -1.3605826     23  2.300                                                                 
     2     -1.9156920     23  2.300                                                                 
     2     -0.0236318     23  2.300                                                                 
     3     -1.3605826     23  2.300                                                                 
  local pseudopotential read in
  partial core-charges read in
  partial kinetic energy density read in
  atomic valenz-charges read in
  non local Contribution for L=           0  read in
    real space projection operators read in
  non local Contribution for L=           0  read in
    real space projection operators read in
  non local Contribution for L=           1  read in
    real space projection operators read in
  non local Contribution for L=           1  read in
    real space projection operators read in
  non local Contribution for L=           2  read in
    real space projection operators read in
  non local Contribution for L=           2  read in
    real space projection operators read in
    PAW grid and wavefunctions read in
 
   number of l-projection  operators is LMAX  =           6
   number of lm-projection operators is LMMAX =          18
 
 POTCAR:   PAW_PBE O_s 07Sep2000                  
   SHA256 =  e7f4e16ee7752e7dead62f07b2b95b8f91122148deae9dd89b96c576b0e91599 O_s/POTCAR            
   COPYR  = (c) Copyright 07Sep2000 Georg Kresse                                                    
   COPYR  = This file is part of the software VASP. Any use, copying, and all other rights are regul
   COPYR  = If you do not have a valid VASP license, you may not use, copy or distribute this file. 
   VRHFIN =O: s2p4                                                                                  
   LEXCH  = PE                                                                                      
   EATOM  =   432.3788 eV,   31.7789 Ry                                                             
                                                                                                    
   TITEL  = PAW_PBE O_s 07Sep2000                                                                   
   LULTRA =        F    use ultrasoft PP ?                                                          
   IUNSCR =        0    unscreen: 0-lin 1-nonlin 2-no                                               
   RPACOR =    0.000    partial core radius                                                         
   POMASS =   16.000; ZVAL   =    6.000    mass and valenz                                          
   RCORE  =    1.850    outmost cutoff radius                                                       
   RWIGS  =    1.700; RWIGS  =    0.900    wigner-seitz radius (au A)                               
   ENMAX  =  282.853; ENMIN  =  212.140 eV                                                          
   RCLOC  =    0.804    cutoff for local pot                                                        
   LCOR   =        T    correct aug charges                                                         
   LPAW   =        T    paw PP                                                                      
   EAUG   =  412.352                                                                                
   RMAX   =    1.897    core radius for proj-oper                                                   
   RAUG   =    1.300    factor for augmentation sphere                                              
   RDEP   =    1.878    radius for radial grids                                                     
   RDEPT  =    1.572    core radius for aug-charge                                                  
                                                                                                    
   Atomic configuration                                                                             
    4 entries                                                                                       
     n  l   j            E        occ.                                                              
     1  0  0.50      -514.6923   2.0000                                                             
     2  0  0.50       -23.9615   2.0000                                                             
     2  1  0.50        -9.0305   4.0000                                                             
     3  2  1.50        -1.3606   0.0000                                                             
   Description                                                                                      
     l       E           TYP  RCUT    TYP  RCUT                                                     
     0    -23.9615315     23  1.500                                                                 
     0    -25.3221141     23  1.500                                                                 
     1     -9.0304908     23  1.850                                                                 
     1     -7.3935399     23  1.850                                                                 
  local pseudopotential read in
  atomic valenz-charges read in
  non local Contribution for L=           0  read in
    real space projection operators read in
  non local Contribution for L=           0  read in
    real space projection operators read in
  non local Contribution for L=           1  read in
    real space projection operators read in
  non local Contribution for L=           1  read in
    real space projection operators read in
    PAW grid and wavefunctions read in
 
   number of l-projection  operators is LMAX  =           4
   number of lm-projection operators is LMMAX =           8
 
  PAW_PBE Ti_sv 26Sep2005               :
 energy of atom  1       EATOM=-1588.0892
 kinetic energy error for atom=    0.0046 (will be added to EATOM!!)
 PAW_PBE O_s 07Sep2000                  :
 energy of atom  2       EATOM= -432.3788
 kinetic energy error for atom=    0.0065 (will be added to EATOM!!)
 
 
 POSCAR: Rutile TiO2
  positions in direct lattice
  velocities in cartesian coordinates
 exchange correlation table for  LEXCH =        8
   RHO(1)=    0.500       N(1)  =     2000
   RHO(2)=  100.500       N(2)  =     4000
 


--------------------------------------------------------------------------------------------------------


 ion  position               nearest neighbor table
   1  0.000  0.000  0.000-   3 1.95   4 1.95   3 1.95   4 1.95   5 1.97   6 1.97
   2  0.500  0.500  0.500-   5 1.95   6 1.95   5 1.95   6 1.95   3 1.97   4 1.97
   3  0.196  0.804  0.500-   1 1.95   1 1.95   2 1.97
   4  0.804  0.196  0.500-   1 1.95   1 1.95   2 1.97
   5  0.304  0.304  0.000-   2 1.95   2 1.95   1 1.97
   6  0.696  0.696  0.000-   2 1.95   2 1.95   1 1.97
 
  LATTYP: Found a simple tetragonal cell.
 ALAT       =     4.5840000000
 C/A-ratio  =     0.6441972077
  
  Lattice vectors:
  
 A1 = (   4.5840000000,   0.0000000000,   0.0000000000)
 A2 = (   0.0000000000,   4.5840000000,   0.0000000000)
 A3 = (   0.0000000000,   0.0000000000,   2.9530000000)


Analysis of symmetry for initial positions (statically):
=====================================================================
 Subroutine PRICEL returns:
 Original cell was already a primitive cell.
 

 Routine SETGRP: Setting up the symmetry group for a 
 simple tetragonal supercell.


 Subroutine GETGRP returns: Found 16 space group operations
 (whereof  8 operations were pure point group operations)
 out of a pool of 16 trial point group operations.


The static configuration has the point symmetry D_2h.
 The point group associated with its full space group is D_4h.


Analysis of symmetry for dynamics (positions and initial velocities):
=====================================================================
 Subroutine PRICEL returns:
 Original cell was already a primitive cell.
 

 Routine SETGRP: Setting up the symmetry group for a 
 simple tetragonal supercell.


 Subroutine GETGRP returns: Found 16 space group operations
 (whereof  8 operations were pure point group operations)
 out of a pool of 16 trial point group operations.


The dynamic configuration has the point symmetry D_2h.
 The point group associated with its full space group is D_4h.


 Subroutine INISYM returns: Found 16 space group operations
 (whereof  8 operations are pure point group operations),
 and found     1 'primitive' translations


----------------------------------------------------------------------------------------

                                     Primitive cell                                     

  volume of cell :      62.0516

  direct lattice vectors                    reciprocal lattice vectors
     4.584000000  0.000000000  0.000000000     0.218150087  0.000000000  0.000000000
     0.000000000  4.584000000  0.000000000     0.000000000  0.218150087  0.000000000
     0.000000000  0.000000000  2.953000000     0.000000000  0.000000000  0.338638673

  length of vectors
     4.584000000  4.584000000  2.953000000     0.218150087  0.218150087  0.338638673

  position of ions in fractional coordinates (direct lattice)
     0.000000000  0.000000000  0.000000000
     0.500000000  0.500000000  0.500000000
     0.196209329  0.803790671  0.500000000
     0.803790671  0.196209329  0.500000000
     0.303790671  0.303790671  0.000000000
     0.696209329  0.696209329  0.000000000

  ion indices of the primitive-cell ions
   primitive index   ion index
                 1           1
                 2           2
                 3           3
                 4           4
                 5           5
                 6           6

----------------------------------------------------------------------------------------

 
 
 KPOINTS: K-Path Generated by VASPKIT.            

Interpolating k-points between supplied coordinates.

 Line segments in fractional coordinates (reciprocal lattice):
    0.000000  0.000000  0.500000  ...  0.500000  0.500000  0.500000
    0.500000  0.500000  0.500000  ...  0.500000  0.500000  0.000000
    0.500000  0.500000  0.000000  ...  0.000000  0.000000  0.000000
    0.000000  0.000000  0.000000  ...  0.000000  0.000000  0.500000
    0.000000  0.000000  0.500000  ...  0.000000  0.500000  0.500000
    0.000000  0.500000  0.500000  ...  0.000000  0.500000  0.000000
    0.000000  0.500000  0.000000  ...  0.000000  0.000000  0.000000

 Generated    20 points on each line segment, for a total of    140 k-points:

 Following reciprocal coordinates:
            Coordinates               Weight
  0.000000  0.000000  0.500000      0.007143
  0.026316  0.026316  0.500000      0.007143
  0.052632  0.052632  0.500000      0.007143
  0.078947  0.078947  0.500000      0.007143
  0.105263  0.105263  0.500000      0.007143
  0.131579  0.131579  0.500000      0.007143
  0.157895  0.157895  0.500000      0.007143
  0.184211  0.184211  0.500000      0.007143
  0.210526  0.210526  0.500000      0.007143
  0.236842  0.236842  0.500000      0.007143
  0.263158  0.263158  0.500000      0.007143
  0.289474  0.289474  0.500000      0.007143
  0.315789  0.315789  0.500000      0.007143
  0.342105  0.342105  0.500000      0.007143
  0.368421  0.368421  0.500000      0.007143
  0.394737  0.394737  0.500000      0.007143
  0.421053  0.421053  0.500000      0.007143
  0.447368  0.447368  0.500000      0.007143
  0.473684  0.473684  0.500000      0.007143
  0.500000  0.500000  0.500000      0.007143
  0.500000  0.500000  0.500000      0.007143
  0.500000  0.500000  0.473684      0.007143
  0.500000  0.500000  0.447368      0.007143
  0.500000  0.500000  0.421053      0.007143
  0.500000  0.500000  0.394737      0.007143
  0.500000  0.500000  0.368421      0.007143
  0.500000  0.500000  0.342105      0.007143
  0.500000  0.500000  0.315789      0.007143
  0.500000  0.500000  0.289474      0.007143
  0.500000  0.500000  0.263158      0.007143
  0.500000  0.500000  0.236842      0.007143
  0.500000  0.500000  0.210526      0.007143
  0.500000  0.500000  0.184211      0.007143
  0.500000  0.500000  0.157895      0.007143
  0.500000  0.500000  0.131579      0.007143
  0.500000  0.500000  0.105263      0.007143
  0.500000  0.500000  0.078947      0.007143
  0.500000  0.500000  0.052632      0.007143
  0.500000  0.500000  0.026316      0.007143
  0.500000  0.500000  0.000000      0.007143
  0.500000  0.500000  0.000000      0.007143
  0.473684  0.473684  0.000000      0.007143
  0.447368  0.447368  0.000000      0.007143
  0.421053  0.421053  0.000000      0.007143
  0.394737  0.394737  0.000000      0.007143
  0.368421  0.368421  0.000000      0.007143
  0.342105  0.342105  0.000000      0.007143
  0.315789  0.315789  0.000000      0.007143
  0.289474  0.289474  0.000000      0.007143
  0.263158  0.263158  0.000000      0.007143
  0.236842  0.236842  0.000000      0.007143
  0.210526  0.210526  0.000000      0.007143
  0.184211  0.184211  0.000000      0.007143
  0.157895  0.157895  0.000000      0.007143
  0.131579  0.131579  0.000000      0.007143
  0.105263  0.105263  0.000000      0.007143
  0.078947  0.078947  0.000000      0.007143
  0.052632  0.052632  0.000000      0.007143
  0.026316  0.026316  0.000000      0.007143
  0.000000  0.000000  0.000000      0.007143
  0.000000  0.000000  0.000000      0.007143
  0.000000  0.000000  0.026316      0.007143
  0.000000  0.000000  0.052632      0.007143
  0.000000  0.000000  0.078947      0.007143
  0.000000  0.000000  0.105263      0.007143
  0.000000  0.000000  0.131579      0.007143
  0.000000  0.000000  0.157895      0.007143
  0.000000  0.000000  0.184211      0.007143
  0.000000  0.000000  0.210526      0.007143
  0.000000  0.000000  0.236842      0.007143
  0.000000  0.000000  0.263158      0.007143
  0.000000  0.000000  0.289474      0.007143
  0.000000  0.000000  0.315789      0.007143
  0.000000  0.000000  0.342105      0.007143
  0.000000  0.000000  0.368421      0.007143
  0.000000  0.000000  0.394737      0.007143
  0.000000  0.000000  0.421053      0.007143
  0.000000  0.000000  0.447368      0.007143
  0.000000  0.000000  0.473684      0.007143
  0.000000  0.000000  0.500000      0.007143
  0.000000  0.000000  0.500000      0.007143
  0.000000  0.026316  0.500000      0.007143
  0.000000  0.052632  0.500000      0.007143
  0.000000  0.078947  0.500000      0.007143
  0.000000  0.105263  0.500000      0.007143
  0.000000  0.131579  0.500000      0.007143
  0.000000  0.157895  0.500000      0.007143
  0.000000  0.184211  0.500000      0.007143
  0.000000  0.210526  0.500000      0.007143
  0.000000  0.236842  0.500000      0.007143
  0.000000  0.263158  0.500000      0.007143
  0.000000  0.289474  0.500000      0.007143
  0.000000  0.315789  0.500000      0.007143
  0.000000  0.342105  0.500000      0.007143
  0.000000  0.368421  0.500000      0.007143
  0.000000  0.394737  0.500000      0.007143
  0.000000  0.421053  0.500000      0.007143
  0.000000  0.447368  0.500000      0.007143
  0.000000  0.473684  0.500000      0.007143
  0.000000  0.500000  0.500000      0.007143
  0.000000  0.500000  0.500000      0.007143
  0.000000  0.500000  0.473684      0.007143
  0.000000  0.500000  0.447368      0.007143
  0.000000  0.500000  0.421053      0.007143
  0.000000  0.500000  0.394737      0.007143
  0.000000  0.500000  0.368421      0.007143
  0.000000  0.500000  0.342105      0.007143
  0.000000  0.500000  0.315789      0.007143
  0.000000  0.500000  0.289474      0.007143
  0.000000  0.500000  0.263158      0.007143
  0.000000  0.500000  0.236842      0.007143
  0.000000  0.500000  0.210526      0.007143
  0.000000  0.500000  0.184211      0.007143
  0.000000  0.500000  0.157895      0.007143
  0.000000  0.500000  0.131579      0.007143
  0.000000  0.500000  0.105263      0.007143
  0.000000  0.500000  0.078947      0.007143
  0.000000  0.500000  0.052632      0.007143
  0.000000  0.500000  0.026316      0.007143
  0.000000  0.500000  0.000000      0.007143
  0.000000  0.500000  0.000000      0.007143
  0.000000  0.473684  0.000000      0.007143
  0.000000  0.447368  0.000000      0.007143
  0.000000  0.421053  0.000000      0.007143
  0.000000  0.394737  0.000000      0.007143
  0.000000  0.368421  0.000000      0.007143
  0.000000  0.342105  0.000000      0.007143
  0.000000  0.315789  0.000000      0.007143
  0.000000  0.289474  0.000000      0.007143
  0.000000  0.263158  0.000000      0.007143
  0.000000  0.236842  0.000000      0.007143
  0.000000  0.210526  0.000000      0.007143
  0.000000  0.184211  0.000000      0.007143
  0.000000  0.157895  0.000000      0.007143
  0.000000  0.131579  0.000000      0.007143
  0.000000  0.105263  0.000000      0.007143
  0.000000  0.078947  0.000000      0.007143
  0.000000  0.052632  0.000000      0.007143
  0.000000  0.026316  0.000000      0.007143
  0.000000  0.000000  0.000000      0.007143

 Following cartesian coordinates:
            Coordinates               Weight
  0.000000  0.000000  0.169319      0.007143
  0.005741  0.005741  0.169319      0.007143
  0.011482  0.011482  0.169319      0.007143
  0.017222  0.017222  0.169319      0.007143
  0.022963  0.022963  0.169319      0.007143
  0.028704  0.028704  0.169319      0.007143
  0.034445  0.034445  0.169319      0.007143
  0.040186  0.040186  0.169319      0.007143
  0.045926  0.045926  0.169319      0.007143
  0.051667  0.051667  0.169319      0.007143
  0.057408  0.057408  0.169319      0.007143
  0.063149  0.063149  0.169319      0.007143
  0.068890  0.068890  0.169319      0.007143
  0.074630  0.074630  0.169319      0.007143
  0.080371  0.080371  0.169319      0.007143
  0.086112  0.086112  0.169319      0.007143
  0.091853  0.091853  0.169319      0.007143
  0.097593  0.097593  0.169319      0.007143
  0.103334  0.103334  0.169319      0.007143
  0.109075  0.109075  0.169319      0.007143
  0.109075  0.109075  0.169319      0.007143
  0.109075  0.109075  0.160408      0.007143
  0.109075  0.109075  0.151496      0.007143
  0.109075  0.109075  0.142585      0.007143
  0.109075  0.109075  0.133673      0.007143
  0.109075  0.109075  0.124762      0.007143
  0.109075  0.109075  0.115850      0.007143
  0.109075  0.109075  0.106939      0.007143
  0.109075  0.109075  0.098027      0.007143
  0.109075  0.109075  0.089115      0.007143
  0.109075  0.109075  0.080204      0.007143
  0.109075  0.109075  0.071292      0.007143
  0.109075  0.109075  0.062381      0.007143
  0.109075  0.109075  0.053469      0.007143
  0.109075  0.109075  0.044558      0.007143
  0.109075  0.109075  0.035646      0.007143
  0.109075  0.109075  0.026735      0.007143
  0.109075  0.109075  0.017823      0.007143
  0.109075  0.109075  0.008912      0.007143
  0.109075  0.109075  0.000000      0.007143
  0.109075  0.109075  0.000000      0.007143
  0.103334  0.103334  0.000000      0.007143
  0.097593  0.097593  0.000000      0.007143
  0.091853  0.091853  0.000000      0.007143
  0.086112  0.086112  0.000000      0.007143
  0.080371  0.080371  0.000000      0.007143
  0.074630  0.074630  0.000000      0.007143
  0.068890  0.068890  0.000000      0.007143
  0.063149  0.063149  0.000000      0.007143
  0.057408  0.057408  0.000000      0.007143
  0.051667  0.051667  0.000000      0.007143
  0.045926  0.045926  0.000000      0.007143
  0.040186  0.040186  0.000000      0.007143
  0.034445  0.034445  0.000000      0.007143
  0.028704  0.028704  0.000000      0.007143
  0.022963  0.022963  0.000000      0.007143
  0.017222  0.017222  0.000000      0.007143
  0.011482  0.011482  0.000000      0.007143
  0.005741  0.005741  0.000000      0.007143
  0.000000  0.000000  0.000000      0.007143
  0.000000  0.000000  0.000000      0.007143
  0.000000  0.000000  0.008912      0.007143
  0.000000  0.000000  0.017823      0.007143
  0.000000  0.000000  0.026735      0.007143
  0.000000  0.000000  0.035646      0.007143
  0.000000  0.000000  0.044558      0.007143
  0.000000  0.000000  0.053469      0.007143
  0.000000  0.000000  0.062381      0.007143
  0.000000  0.000000  0.071292      0.007143
  0.000000  0.000000  0.080204      0.007143
  0.000000  0.000000  0.089115      0.007143
  0.000000  0.000000  0.098027      0.007143
  0.000000  0.000000  0.106939      0.007143
  0.000000  0.000000  0.115850      0.007143
  0.000000  0.000000  0.124762      0.007143
  0.000000  0.000000  0.133673      0.007143
  0.000000  0.000000  0.142585      0.007143
  0.000000  0.000000  0.151496      0.007143
  0.000000  0.000000  0.160408      0.007143
  0.000000  0.000000  0.169319      0.007143
  0.000000  0.000000  0.169319      0.007143
  0.000000  0.005741  0.169319      0.007143
  0.000000  0.011482  0.169319      0.007143
  0.000000  0.017222  0.169319      0.007143
  0.000000  0.022963  0.169319      0.007143
  0.000000  0.028704  0.169319      0.007143
  0.000000  0.034445  0.169319      0.007143
  0.000000  0.040186  0.169319      0.007143
  0.000000  0.045926  0.169319      0.007143
  0.000000  0.051667  0.169319      0.007143
  0.000000  0.057408  0.169319      0.007143
  0.000000  0.063149  0.169319      0.007143
  0.000000  0.068890  0.169319      0.007143
  0.000000  0.074630  0.169319      0.007143
  0.000000  0.080371  0.169319      0.007143
  0.000000  0.086112  0.169319      0.007143
  0.000000  0.091853  0.169319      0.007143
  0.000000  0.097593  0.169319      0.007143
  0.000000  0.103334  0.169319      0.007143
  0.000000  0.109075  0.169319      0.007143
  0.000000  0.109075  0.169319      0.007143
  0.000000  0.109075  0.160408      0.007143
  0.000000  0.109075  0.151496      0.007143
  0.000000  0.109075  0.142585      0.007143
  0.000000  0.109075  0.133673      0.007143
  0.000000  0.109075  0.124762      0.007143
  0.000000  0.109075  0.115850      0.007143
  0.000000  0.109075  0.106939      0.007143
  0.000000  0.109075  0.098027      0.007143
  0.000000  0.109075  0.089115      0.007143
  0.000000  0.109075  0.080204      0.007143
  0.000000  0.109075  0.071292      0.007143
  0.000000  0.109075  0.062381      0.007143
  0.000000  0.109075  0.053469      0.007143
  0.000000  0.109075  0.044558      0.007143
  0.000000  0.109075  0.035646      0.007143
  0.000000  0.109075  0.026735      0.007143
  0.000000  0.109075  0.017823      0.007143
  0.000000  0.109075  0.008912      0.007143
  0.000000  0.109075  0.000000      0.007143
  0.000000  0.109075  0.000000      0.007143
  0.000000  0.103334  0.000000      0.007143
  0.000000  0.097593  0.000000      0.007143
  0.000000  0.091853  0.000000      0.007143
  0.000000  0.086112  0.000000      0.007143
  0.000000  0.080371  0.000000      0.007143
  0.000000  0.074630  0.000000      0.007143
  0.000000  0.068890  0.000000      0.007143
  0.000000  0.063149  0.000000      0.007143
  0.000000  0.057408  0.000000      0.007143
  0.000000  0.051667  0.000000      0.007143
  0.000000  0.045926  0.000000      0.007143
  0.000000  0.040186  0.000000      0.007143
  0.000000  0.034445  0.000000      0.007143
  0.000000  0.028704  0.000000      0.007143
  0.000000  0.022963  0.000000      0.007143
  0.000000  0.017222  0.000000      0.007143
  0.000000  0.011482  0.000000      0.007143
  0.000000  0.005741  0.000000      0.007143
  0.000000  0.000000  0.000000      0.007143
 


--------------------------------------------------------------------------------------------------------




 Dimension of arrays:
   k-points           NKPTS =    140   k-points in BZ     NKDIM =    140   number of bands    NBANDS=     28
   number of dos      NEDOS =    301   number of ions     NIONS =      6
   non local maximal  LDIM  =      6   non local SUM 2l+1 LMDIM =     18
   total plane-waves  NPLWV =  12544
   max r-space proj   IRMAX =      1   max aug-charges    IRDMAX=   8047
   dimension x,y,z NGX =    28 NGY =   28 NGZ =   16
   dimension x,y,z NGXF=    56 NGYF=   56 NGZF=   32
   support grid    NGXF=    56 NGYF=   56 NGZF=   32
   ions per type =               2   4
   NGX,Y,Z   is equivalent  to a cutoff of  10.15, 10.15,  9.01 a.u.
   NGXF,Y,Z  is equivalent  to a cutoff of  20.31, 20.31, 18.02 a.u.

 SYSTEM =  TiO2                                    
 POSCAR =  Rutile TiO2                             

 Startparameter for this run:
   NWRITE =      2    write-flag & timer
   PREC   = normal    normal or accurate (medium, high low for compatibility)
   ISTART =      1    job   : 0-new  1-cont  2-samecut
   ICHARG =     11    charge: 1-file 2-atom 10-const
   ISPIN  =      1    spin polarized calculation?
   LNONCOLLINEAR =      F non collinear calculations
   LSORBIT =      F    spin-orbit coupling
   INIWAV =      1    electr: 0-lowe 1-rand  2-diag
   LASPH  =      F    aspherical Exc in radial PAW
   METAGGA=      F    non-selfconsistent MetaGGA calc.

 Electronic Relaxation 1
   ENCUT  =  500.0 eV  36.75 Ry    6.06 a.u.   8.36  8.36  5.38*2*pi/ulx,y,z
   ENINI  =  500.0     initial cutoff
   ENAUG  =  482.8 eV  augmentation charge cutoff
   NELM   =     60;   NELMIN=  2; NELMDL=  0     # of ELM steps 
   EDIFF  = 0.1E-04   stopping-criterion for ELM
   LREAL  =      F    real-space projection
   NLSPLINE    = F    spline interpolate recip. space projectors
   LCOMPAT=      F    compatible to vasp.4.4
   GGA_COMPAT  = T    GGA compatible to vasp.4.4-vasp.4.6
   LMAXPAW     = -100 max onsite density
   LMAXMIX     =    4 max onsite mixed and CHGCAR
   VOSKOWN=      0    Vosko Wilk Nusair interpolation
   ROPT   =    0.00000   0.00000
 Ionic relaxation
   EDIFFG = 0.1E-03   stopping-criterion for IOM
   NSW    =      0    number of steps for IOM
   NBLOCK =      1;   KBLOCK =      1    inner block; outer block 
   IBRION =     -1    ionic relax: 0-MD 1-quasi-New 2-CG
   NFREE  =      0    steps in history (QN), initial steepest desc. (CG)
   ISIF   =      2    stress and relaxation
   IWAVPR =     10    prediction:  0-non 1-charg 2-wave 3-comb
   ISYM   =      2    0-nonsym 1-usesym 2-fastsym
   LCORR  =      T    Harris-Foulkes like correction to forces

   POTIM  = 0.5000    time-step for ionic-motion
   TEIN   =    0.0    initial temperature
   TEBEG  =    0.0;   TEEND  =   0.0 temperature during run
   SMASS  =  -3.00    Nose mass-parameter (am)
   estimated Nose-frequenzy (Omega)   =  0.10E-29 period in steps = 0.13E+47 mass=  -0.480E-27a.u.
   SCALEE = 1.0000    scale energy and forces
   NPACO  =    256;   APACO  = 16.0  distance and # of slots for P.C.
   PSTRESS=    0.0 pullay stress

  Mass of Ions in am
   POMASS =  47.88 16.00
  Ionic Valenz
   ZVAL   =  12.00  6.00
  Atomic Wigner-Seitz radii
   RWIGS  =  -1.00 -1.00
  virtual crystal weights 
   VCA    =   1.00  1.00
   NELECT =      48.0000    total number of electrons
   NUPDOWN=      -1.0000    fix difference up-down

 DOS related values:
   EMIN   =  10.00;   EMAX   =-10.00  energy-range for DOS
   EFERMI =   0.00
   ISMEAR =     0;   SIGMA  =   0.01  broadening in eV -4-tet -1-fermi 0-gaus

 Electronic relaxation 2 (details)
   IALGO  =     38    algorithm
   LDIAG  =      T    sub-space diagonalisation (order eigenvalues)
   LSUBROT=      F    optimize rotation matrix (better conditioning)
   TURBO    =      0    0=normal 1=particle mesh
   IRESTART =      0    0=no restart 2=restart with 2 vectors
   NREBOOT  =      0    no. of reboots
   NMIN     =      0    reboot dimension
   EREF     =   0.00    reference energy to select bands
   IMIX   =      4    mixing-type and parameters
     AMIX     =   0.40;   BMIX     =  1.00
     AMIX_MAG =   1.60;   BMIX_MAG =  1.00
     AMIN     =   0.10
     WC   =   100.;   INIMIX=   1;  MIXPRE=   1;  MAXMIX= -45

 Intra band minimization:
   WEIMIN = 0.0000     energy-eigenvalue tresh-hold
   EBREAK =  0.89E-07  absolut break condition
   DEPER  =   0.30     relativ break condition  

   TIME   =   0.40     timestep for ELM

  volume/ion in A,a.u.               =      10.34        69.79
  Fermi-wavevector in a.u.,A,eV,Ry     =   1.502811  2.839901 30.727952  2.258441
  Thomas-Fermi vector in A             =   2.614003
 
 Write flags
   LWAVE        =      T    write WAVECAR
   LDOWNSAMPLE  =      F    k-point downsampling of WAVECAR
   LCHARG       =      T    write CHGCAR
   LVTOT        =      F    write LOCPOT, total local potential
   LVHAR        =      F    write LOCPOT, Hartree potential only
   LELF         =      F    write electronic localiz. function (ELF)
   LORBIT       =      0    0 simple, 1 ext, 2 COOP (PROOUT), +10 PAW based schemes


 Dipole corrections
   LMONO  =      F    monopole corrections only (constant potential shift)
   LDIPOL =      F    correct potential (dipole corrections)
   IDIPOL =      0    1-x, 2-y, 3-z, 4-all directions 
   EPSILON=  1.0000000 bulk dielectric constant

 LDA+U is selected, type is set to LDAUTYPE =  2
   angular momentum for each species LDAUL =     2   -1
   U (eV)           for each species LDAUU =   3.9  0.0
   J (eV)           for each species LDAUJ =   0.0  0.0
 Exchange correlation treatment:
   GGA     =    --    GGA type
   LEXCH   =     8    internal setting for exchange type
   VOSKOWN=      0    Vosko Wilk Nusair interpolation
   LHFCALC =     F    Hartree Fock is set to
   LHFONE  =     F    Hartree Fock one center treatment
   AEXX    =    0.0000 exact exchange contribution

 Linear response parameters
   LEPSILON=     F    determine dielectric tensor
   LRPA    =     F    only Hartree local field effects (RPA)
   LNABLA  =     F    use nabla operator in PAW spheres
   LVEL    =     F    velocity operator in full k-point grid
   LINTERFAST=   F  fast interpolation
   KINTER  =     0    interpolate to denser k-point grid
   CSHIFT  =0.1000    complex shift for real part using Kramers Kronig
   OMEGAMAX=  -1.0    maximum frequency
   DEG_THRESHOLD= 0.2000000E-02 threshold for treating states as degnerate
   RTIME   =   -0.100 relaxation time in fs
  (WPLASMAI=    0.000 imaginary part of plasma frequency in eV, 0.658/RTIME)
   DFIELD  = 0.0000000 0.0000000 0.0000000 field for delta impulse in time
 
 Orbital magnetization related:
   ORBITALMAG=     F  switch on orbital magnetization
   LCHIMAG   =     F  perturbation theory with respect to B field
   DQ        =  0.001000  dq finite difference perturbation B field
   LLRAUG    =     F  two centre corrections for induced B field



--------------------------------------------------------------------------------------------------------


 Static calculation
 charge density and potential remain constant during run
 non-spin polarized calculation
 Variant of blocked Davidson
 Davidson routine will perform the subspace rotation
 perform sub-space diagonalisation
    after iterative eigenvector-optimisation
 no mixing
 using additional bands            4
 reciprocal scheme for non local part
 use partial core corrections
 calculate Harris-corrections to forces 
   (improved forces if not selfconsistent)
 use gradient corrections 
 WARNING: stress and forces are not correct
  (second derivative of E(xc) not defined)
 use of overlap-Matrix (Vanderbilt PP)
 Gauss-broadening in eV      SIGMA  =   0.01


--------------------------------------------------------------------------------------------------------


  energy-cutoff  :      500.00
  volume of cell :       62.05
      direct lattice vectors                 reciprocal lattice vectors
     4.584000000  0.000000000  0.000000000     0.218150087  0.000000000  0.000000000
     0.000000000  4.584000000  0.000000000     0.000000000  0.218150087  0.000000000
     0.000000000  0.000000000  2.953000000     0.000000000  0.000000000  0.338638673

  length of vectors
     4.584000000  4.584000000  2.953000000     0.218150087  0.218150087  0.338638673


 
 old parameters found on file WAVECAR:
  energy-cutoff  :      500.00
  volume of cell :       62.05
      direct lattice vectors                 reciprocal lattice vectors
     4.584000000  0.000000000  0.000000000     0.218150087  0.000000000  0.000000000
     0.000000000  4.584000000  0.000000000     0.000000000  0.218150087  0.000000000
     0.000000000  0.000000000  2.953000000     0.000000000  0.000000000  0.338638673

  length of vectors

 
 k-points in units of 2pi/SCALE and weight: K-Path Generated by VASPKIT.            
   0.00000000  0.00000000  0.16931934       0.007
   0.00574079  0.00574079  0.16931934       0.007
   0.01148158  0.01148158  0.16931934       0.007
   0.01722238  0.01722238  0.16931934       0.007
   0.02296317  0.02296317  0.16931934       0.007
   0.02870396  0.02870396  0.16931934       0.007
   0.03444475  0.03444475  0.16931934       0.007
   0.04018554  0.04018554  0.16931934       0.007
   0.04592633  0.04592633  0.16931934       0.007
   0.05166713  0.05166713  0.16931934       0.007
   0.05740792  0.05740792  0.16931934       0.007
   0.06314871  0.06314871  0.16931934       0.007
   0.06888950  0.06888950  0.16931934       0.007
   0.07463029  0.07463029  0.16931934       0.007
   0.08037108  0.08037108  0.16931934       0.007
   0.08611188  0.08611188  0.16931934       0.007
   0.09185267  0.09185267  0.16931934       0.007
   0.09759346  0.09759346  0.16931934       0.007
   0.10333425  0.10333425  0.16931934       0.007
   0.10907504  0.10907504  0.16931934       0.007
   0.10907504  0.10907504  0.16931934       0.007
   0.10907504  0.10907504  0.16040779       0.007
   0.10907504  0.10907504  0.15149625       0.007
   0.10907504  0.10907504  0.14258470       0.007
   0.10907504  0.10907504  0.13367316       0.007
   0.10907504  0.10907504  0.12476162       0.007
   0.10907504  0.10907504  0.11585007       0.007
   0.10907504  0.10907504  0.10693853       0.007
   0.10907504  0.10907504  0.09802698       0.007
   0.10907504  0.10907504  0.08911544       0.007
   0.10907504  0.10907504  0.08020390       0.007
   0.10907504  0.10907504  0.07129235       0.007
   0.10907504  0.10907504  0.06238081       0.007
   0.10907504  0.10907504  0.05346926       0.007
   0.10907504  0.10907504  0.04455772       0.007
   0.10907504  0.10907504  0.03564618       0.007
   0.10907504  0.10907504  0.02673463       0.007
   0.10907504  0.10907504  0.01782309       0.007
   0.10907504  0.10907504  0.00891154       0.007
   0.10907504  0.10907504  0.00000000       0.007
   0.10907504  0.10907504  0.00000000       0.007
   0.10333425  0.10333425  0.00000000       0.007
   0.09759346  0.09759346  0.00000000       0.007
   0.09185267  0.09185267  0.00000000       0.007
   0.08611188  0.08611188  0.00000000       0.007
   0.08037108  0.08037108  0.00000000       0.007
   0.07463029  0.07463029  0.00000000       0.007
   0.06888950  0.06888950  0.00000000       0.007
   0.06314871  0.06314871  0.00000000       0.007
   0.05740792  0.05740792  0.00000000       0.007
   0.05166713  0.05166713  0.00000000       0.007
   0.04592633  0.04592633  0.00000000       0.007
   0.04018554  0.04018554  0.00000000       0.007
   0.03444475  0.03444475  0.00000000       0.007
   0.02870396  0.02870396  0.00000000       0.007
   0.02296317  0.02296317  0.00000000       0.007
   0.01722238  0.01722238  0.00000000       0.007
   0.01148158  0.01148158  0.00000000       0.007
   0.00574079  0.00574079  0.00000000       0.007
   0.00000000  0.00000000  0.00000000       0.007
   0.00000000  0.00000000  0.00000000       0.007
   0.00000000  0.00000000  0.00891154       0.007
   0.00000000  0.00000000  0.01782309       0.007
   0.00000000  0.00000000  0.02673463       0.007
   0.00000000  0.00000000  0.03564618       0.007
   0.00000000  0.00000000  0.04455772       0.007
   0.00000000  0.00000000  0.05346926       0.007
   0.00000000  0.00000000  0.06238081       0.007
   0.00000000  0.00000000  0.07129235       0.007
   0.00000000  0.00000000  0.08020390       0.007
   0.00000000  0.00000000  0.08911544       0.007
   0.00000000  0.00000000  0.09802698       0.007
   0.00000000  0.00000000  0.10693853       0.007
   0.00000000  0.00000000  0.11585007       0.007
   0.00000000  0.00000000  0.12476162       0.007
   0.00000000  0.00000000  0.13367316       0.007
   0.00000000  0.00000000  0.14258470       0.007
   0.00000000  0.00000000  0.15149625       0.007
   0.00000000  0.00000000  0.16040779       0.007
   0.00000000  0.00000000  0.16931934       0.007
   0.00000000  0.00000000  0.16931934       0.007
   0.00000000  0.00574079  0.16931934       0.007
   0.00000000  0.01148158  0.16931934       0.007
   0.00000000  0.01722238  0.16931934       0.007
   0.00000000  0.02296317  0.16931934       0.007
   0.00000000  0.02870396  0.16931934       0.007
   0.00000000  0.03444475  0.16931934       0.007
   0.00000000  0.04018554  0.16931934       0.007
   0.00000000  0.04592633  0.16931934       0.007
   0.00000000  0.05166713  0.16931934       0.007
   0.00000000  0.05740792  0.16931934       0.007
   0.00000000  0.06314871  0.16931934       0.007
   0.00000000  0.06888950  0.16931934       0.007
   0.00000000  0.07463029  0.16931934       0.007
   0.00000000  0.08037108  0.16931934       0.007
   0.00000000  0.08611188  0.16931934       0.007
   0.00000000  0.09185267  0.16931934       0.007
   0.00000000  0.09759346  0.16931934       0.007
   0.00000000  0.10333425  0.16931934       0.007
   0.00000000  0.10907504  0.16931934       0.007
   0.00000000  0.10907504  0.16931934       0.007
   0.00000000  0.10907504  0.16040779       0.007
   0.00000000  0.10907504  0.15149625       0.007
   0.00000000  0.10907504  0.14258470       0.007
   0.00000000  0.10907504  0.13367316       0.007
   0.00000000  0.10907504  0.12476162       0.007
   0.00000000  0.10907504  0.11585007       0.007
   0.00000000  0.10907504  0.10693853       0.007
   0.00000000  0.10907504  0.09802698       0.007
   0.00000000  0.10907504  0.08911544       0.007
   0.00000000  0.10907504  0.08020390       0.007
   0.00000000  0.10907504  0.07129235       0.007
   0.00000000  0.10907504  0.06238081       0.007
   0.00000000  0.10907504  0.05346926       0.007
   0.00000000  0.10907504  0.04455772       0.007
   0.00000000  0.10907504  0.03564618       0.007
   0.00000000  0.10907504  0.02673463       0.007
   0.00000000  0.10907504  0.01782309       0.007
   0.00000000  0.10907504  0.00891154       0.007
   0.00000000  0.10907504  0.00000000       0.007
   0.00000000  0.10907504  0.00000000       0.007
   0.00000000  0.10333425  0.00000000       0.007
   0.00000000  0.09759346  0.00000000       0.007
   0.00000000  0.09185267  0.00000000       0.007
   0.00000000  0.08611188  0.00000000       0.007
   0.00000000  0.08037108  0.00000000       0.007
   0.00000000  0.07463029  0.00000000       0.007
   0.00000000  0.06888950  0.00000000       0.007
   0.00000000  0.06314871  0.00000000       0.007
   0.00000000  0.05740792  0.00000000       0.007
   0.00000000  0.05166713  0.00000000       0.007
   0.00000000  0.04592633  0.00000000       0.007
   0.00000000  0.04018554  0.00000000       0.007
   0.00000000  0.03444475  0.00000000       0.007
   0.00000000  0.02870396  0.00000000       0.007
   0.00000000  0.02296317  0.00000000       0.007
   0.00000000  0.01722238  0.00000000       0.007
   0.00000000  0.01148158  0.00000000       0.007
   0.00000000  0.00574079  0.00000000       0.007
   0.00000000  0.00000000  0.00000000       0.007
 
 k-points in reciprocal lattice and weights: K-Path Generated by VASPKIT.            
   0.00000000  0.00000000  0.50000000       0.007
   0.02631579  0.02631579  0.50000000       0.007
   0.05263158  0.05263158  0.50000000       0.007
   0.07894737  0.07894737  0.50000000       0.007
   0.10526316  0.10526316  0.50000000       0.007
   0.13157895  0.13157895  0.50000000       0.007
   0.15789474  0.15789474  0.50000000       0.007
   0.18421053  0.18421053  0.50000000       0.007
   0.21052632  0.21052632  0.50000000       0.007
   0.23684211  0.23684211  0.50000000       0.007
   0.26315789  0.26315789  0.50000000       0.007
   0.28947368  0.28947368  0.50000000       0.007
   0.31578947  0.31578947  0.50000000       0.007
   0.34210526  0.34210526  0.50000000       0.007
   0.36842105  0.36842105  0.50000000       0.007
   0.39473684  0.39473684  0.50000000       0.007
   0.42105263  0.42105263  0.50000000       0.007
   0.44736842  0.44736842  0.50000000       0.007
   0.47368421  0.47368421  0.50000000       0.007
   0.50000000  0.50000000  0.50000000       0.007
   0.50000000  0.50000000  0.50000000       0.007
   0.50000000  0.50000000  0.47368421       0.007
   0.50000000  0.50000000  0.44736842       0.007
   0.50000000  0.50000000  0.42105263       0.007
   0.50000000  0.50000000  0.39473684       0.007
   0.50000000  0.50000000  0.36842105       0.007
   0.50000000  0.50000000  0.34210526       0.007
   0.50000000  0.50000000  0.31578947       0.007
   0.50000000  0.50000000  0.28947368       0.007
   0.50000000  0.50000000  0.26315789       0.007
   0.50000000  0.50000000  0.23684211       0.007
   0.50000000  0.50000000  0.21052632       0.007
   0.50000000  0.50000000  0.18421053       0.007
   0.50000000  0.50000000  0.15789474       0.007
   0.50000000  0.50000000  0.13157895       0.007
   0.50000000  0.50000000  0.10526316       0.007
   0.50000000  0.50000000  0.07894737       0.007
   0.50000000  0.50000000  0.05263158       0.007
   0.50000000  0.50000000  0.02631579       0.007
   0.50000000  0.50000000  0.00000000       0.007
   0.50000000  0.50000000  0.00000000       0.007
   0.47368421  0.47368421  0.00000000       0.007
   0.44736842  0.44736842  0.00000000       0.007
   0.42105263  0.42105263  0.00000000       0.007
   0.39473684  0.39473684  0.00000000       0.007
   0.36842105  0.36842105  0.00000000       0.007
   0.34210526  0.34210526  0.00000000       0.007
   0.31578947  0.31578947  0.00000000       0.007
   0.28947368  0.28947368  0.00000000       0.007
   0.26315789  0.26315789  0.00000000       0.007
   0.23684211  0.23684211  0.00000000       0.007
   0.21052632  0.21052632  0.00000000       0.007
   0.18421053  0.18421053  0.00000000       0.007
   0.15789474  0.15789474  0.00000000       0.007
   0.13157895  0.13157895  0.00000000       0.007
   0.10526316  0.10526316  0.00000000       0.007
   0.07894737  0.07894737  0.00000000       0.007
   0.05263158  0.05263158  0.00000000       0.007
   0.02631579  0.02631579  0.00000000       0.007
   0.00000000  0.00000000  0.00000000       0.007
   0.00000000  0.00000000  0.00000000       0.007
   0.00000000  0.00000000  0.02631579       0.007
   0.00000000  0.00000000  0.05263158       0.007
   0.00000000  0.00000000  0.07894737       0.007
   0.00000000  0.00000000  0.10526316       0.007
   0.00000000  0.00000000  0.13157895       0.007
   0.00000000  0.00000000  0.15789474       0.007
   0.00000000  0.00000000  0.18421053       0.007
   0.00000000  0.00000000  0.21052632       0.007
   0.00000000  0.00000000  0.23684211       0.007
   0.00000000  0.00000000  0.26315789       0.007
   0.00000000  0.00000000  0.28947368       0.007
   0.00000000  0.00000000  0.31578947       0.007
   0.00000000  0.00000000  0.34210526       0.007
   0.00000000  0.00000000  0.36842105       0.007
   0.00000000  0.00000000  0.39473684       0.007
   0.00000000  0.00000000  0.42105263       0.007
   0.00000000  0.00000000  0.44736842       0.007
   0.00000000  0.00000000  0.47368421       0.007
   0.00000000  0.00000000  0.50000000       0.007
   0.00000000  0.00000000  0.50000000       0.007
   0.00000000  0.02631579  0.50000000       0.007
   0.00000000  0.05263158  0.50000000       0.007
   0.00000000  0.07894737  0.50000000       0.007
   0.00000000  0.10526316  0.50000000       0.007
   0.00000000  0.13157895  0.50000000       0.007
   0.00000000  0.15789474  0.50000000       0.007
   0.00000000  0.18421053  0.50000000       0.007
   0.00000000  0.21052632  0.50000000       0.007
   0.00000000  0.23684211  0.50000000       0.007
   0.00000000  0.26315789  0.50000000       0.007
   0.00000000  0.28947368  0.50000000       0.007
   0.00000000  0.31578947  0.50000000       0.007
   0.00000000  0.34210526  0.50000000       0.007
   0.00000000  0.36842105  0.50000000       0.007
   0.00000000  0.39473684  0.50000000       0.007
   0.00000000  0.42105263  0.50000000       0.007
   0.00000000  0.44736842  0.50000000       0.007
   0.00000000  0.47368421  0.50000000       0.007
   0.00000000  0.50000000  0.50000000       0.007
   0.00000000  0.50000000  0.50000000       0.007
   0.00000000  0.50000000  0.47368421       0.007
   0.00000000  0.50000000  0.44736842       0.007
   0.00000000  0.50000000  0.42105263       0.007
   0.00000000  0.50000000  0.39473684       0.007
   0.00000000  0.50000000  0.36842105       0.007
   0.00000000  0.50000000  0.34210526       0.007
   0.00000000  0.50000000  0.31578947       0.007
   0.00000000  0.50000000  0.28947368       0.007
   0.00000000  0.50000000  0.26315789       0.007
   0.00000000  0.50000000  0.23684211       0.007
   0.00000000  0.50000000  0.21052632       0.007
   0.00000000  0.50000000  0.18421053       0.007
   0.00000000  0.50000000  0.15789474       0.007
   0.00000000  0.50000000  0.13157895       0.007
   0.00000000  0.50000000  0.10526316       0.007
   0.00000000  0.50000000  0.07894737       0.007
   0.00000000  0.50000000  0.05263158       0.007
   0.00000000  0.50000000  0.02631579       0.007
   0.00000000  0.50000000  0.00000000       0.007
   0.00000000  0.50000000  0.00000000       0.007
   0.00000000  0.47368421  0.00000000       0.007
   0.00000000  0.44736842  0.00000000       0.007
   0.00000000  0.42105263  0.00000000       0.007
   0.00000000  0.39473684  0.00000000       0.007
   0.00000000  0.36842105  0.00000000       0.007
   0.00000000  0.34210526  0.00000000       0.007
   0.00000000  0.31578947  0.00000000       0.007
   0.00000000  0.28947368  0.00000000       0.007
   0.00000000  0.26315789  0.00000000       0.007
   0.00000000  0.23684211  0.00000000       0.007
   0.00000000  0.21052632  0.00000000       0.007
   0.00000000  0.18421053  0.00000000       0.007
   0.00000000  0.15789474  0.00000000       0.007
   0.00000000  0.13157895  0.00000000       0.007
   0.00000000  0.10526316  0.00000000       0.007
   0.00000000  0.07894737  0.00000000       0.007
   0.00000000  0.05263158  0.00000000       0.007
   0.00000000  0.02631579  0.00000000       0.007
   0.00000000  0.00000000  0.00000000       0.007
 
 position of ions in fractional coordinates (direct lattice) 
   0.00000000  0.00000000  0.00000000
   0.50000000  0.50000000  0.50000000
   0.19620933  0.80379067  0.50000000
   0.80379067  0.19620933  0.50000000
   0.30379067  0.30379067  0.00000000
   0.69620933  0.69620933  0.00000000
 
 position of ions in cartesian coordinates  (Angst):
   0.00000000  0.00000000  0.00000000
   2.29200000  2.29200000  1.47650000
   0.89942357  3.68457643  1.47650000
   3.68457643  0.89942357  1.47650000
   1.39257643  1.39257643  0.00000000
   3.19142357  3.19142357  0.00000000
 


--------------------------------------------------------------------------------------------------------


 k-point   1 :   0.0000 0.0000 0.5000  plane waves:    1586
 k-point   2 :   0.0263 0.0263 0.5000  plane waves:    1586
 k-point   3 :   0.0526 0.0526 0.5000  plane waves:    1590
 k-point   4 :   0.0789 0.0789 0.5000  plane waves:    1586
 k-point   5 :   0.1053 0.1053 0.5000  plane waves:    1578
 k-point   6 :   0.1316 0.1316 0.5000  plane waves:    1580
 k-point   7 :   0.1579 0.1579 0.5000  plane waves:    1572
 k-point   8 :   0.1842 0.1842 0.5000  plane waves:    1580
 k-point   9 :   0.2105 0.2105 0.5000  plane waves:    1580
 k-point  10 :   0.2368 0.2368 0.5000  plane waves:    1566
 k-point  11 :   0.2632 0.2632 0.5000  plane waves:    1564
 k-point  12 :   0.2895 0.2895 0.5000  plane waves:    1564
 k-point  13 :   0.3158 0.3158 0.5000  plane waves:    1560
 k-point  14 :   0.3421 0.3421 0.5000  plane waves:    1558
 k-point  15 :   0.3684 0.3684 0.5000  plane waves:    1554
 k-point  16 :   0.3947 0.3947 0.5000  plane waves:    1538
 k-point  17 :   0.4211 0.4211 0.5000  plane waves:    1550
 k-point  18 :   0.4474 0.4474 0.5000  plane waves:    1558
 k-point  19 :   0.4737 0.4737 0.5000  plane waves:    1566
 k-point  20 :   0.5000 0.5000 0.5000  plane waves:    1568
 k-point  21 :   0.5000 0.5000 0.5000  plane waves:    1568
 k-point  22 :   0.5000 0.5000 0.4737  plane waves:    1556
 k-point  23 :   0.5000 0.5000 0.4474  plane waves:    1556
 k-point  24 :   0.5000 0.5000 0.4211  plane waves:    1564
 k-point  25 :   0.5000 0.5000 0.3947  plane waves:    1564
 k-point  26 :   0.5000 0.5000 0.3684  plane waves:    1572
 k-point  27 :   0.5000 0.5000 0.3421  plane waves:    1584
 k-point  28 :   0.5000 0.5000 0.3158  plane waves:    1588
 k-point  29 :   0.5000 0.5000 0.2895  plane waves:    1588
 k-point  30 :   0.5000 0.5000 0.2632  plane waves:    1588
 k-point  31 :   0.5000 0.5000 0.2368  plane waves:    1580
 k-point  32 :   0.5000 0.5000 0.2105  plane waves:    1580
 k-point  33 :   0.5000 0.5000 0.1842  plane waves:    1576
 k-point  34 :   0.5000 0.5000 0.1579  plane waves:    1576
 k-point  35 :   0.5000 0.5000 0.1316  plane waves:    1576
 k-point  36 :   0.5000 0.5000 0.1053  plane waves:    1572
 k-point  37 :   0.5000 0.5000 0.0789  plane waves:    1572
 k-point  38 :   0.5000 0.5000 0.0526  plane waves:    1556
 k-point  39 :   0.5000 0.5000 0.0263  plane waves:    1568
 k-point  40 :   0.5000 0.5000 0.0000  plane waves:    1560
 k-point  41 :   0.5000 0.5000 0.0000  plane waves:    1560
 k-point  42 :   0.4737 0.4737 0.0000  plane waves:    1566
 k-point  43 :   0.4474 0.4474 0.0000  plane waves:    1574
 k-point  44 :   0.4211 0.4211 0.0000  plane waves:    1568
 k-point  45 :   0.3947 0.3947 0.0000  plane waves:    1572
 k-point  46 :   0.3684 0.3684 0.0000  plane waves:    1582
 k-point  47 :   0.3421 0.3421 0.0000  plane waves:    1584
 k-point  48 :   0.3158 0.3158 0.0000  plane waves:    1584
 k-point  49 :   0.2895 0.2895 0.0000  plane waves:    1584
 k-point  50 :   0.2632 0.2632 0.0000  plane waves:    1576
 k-point  51 :   0.2368 0.2368 0.0000  plane waves:    1574
 k-point  52 :   0.2105 0.2105 0.0000  plane waves:    1572
 k-point  53 :   0.1842 0.1842 0.0000  plane waves:    1572
 k-point  54 :   0.1579 0.1579 0.0000  plane waves:    1578
 k-point  55 :   0.1316 0.1316 0.0000  plane waves:    1578
 k-point  56 :   0.1053 0.1053 0.0000  plane waves:    1582
 k-point  57 :   0.0789 0.0789 0.0000  plane waves:    1581
 k-point  58 :   0.0526 0.0526 0.0000  plane waves:    1577
 k-point  59 :   0.0263 0.0263 0.0000  plane waves:    1559
 k-point  60 :   0.0000 0.0000 0.0000  plane waves:    1559
 k-point  61 :   0.0000 0.0000 0.0000  plane waves:    1559
 k-point  62 :   0.0000 0.0000 0.0263  plane waves:    1563
 k-point  63 :   0.0000 0.0000 0.0526  plane waves:    1567
 k-point  64 :   0.0000 0.0000 0.0789  plane waves:    1567
 k-point  65 :   0.0000 0.0000 0.1053  plane waves:    1575
 k-point  66 :   0.0000 0.0000 0.1316  plane waves:    1587
 k-point  67 :   0.0000 0.0000 0.1579  plane waves:    1603
 k-point  68 :   0.0000 0.0000 0.1842  plane waves:    1603
 k-point  69 :   0.0000 0.0000 0.2105  plane waves:    1595
 k-point  70 :   0.0000 0.0000 0.2368  plane waves:    1575
 k-point  71 :   0.0000 0.0000 0.2632  plane waves:    1579
 k-point  72 :   0.0000 0.0000 0.2895  plane waves:    1583
 k-point  73 :   0.0000 0.0000 0.3158  plane waves:    1575
 k-point  74 :   0.0000 0.0000 0.3421  plane waves:    1583
 k-point  75 :   0.0000 0.0000 0.3684  plane waves:    1591
 k-point  76 :   0.0000 0.0000 0.3947  plane waves:    1590
 k-point  77 :   0.0000 0.0000 0.4211  plane waves:    1574
 k-point  78 :   0.0000 0.0000 0.4474  plane waves:    1578
 k-point  79 :   0.0000 0.0000 0.4737  plane waves:    1578
 k-point  80 :   0.0000 0.0000 0.5000  plane waves:    1586
 k-point  81 :   0.0000 0.0000 0.5000  plane waves:    1586
 k-point  82 :   0.0000 0.0263 0.5000  plane waves:    1586
 k-point  83 :   0.0000 0.0526 0.5000  plane waves:    1588
 k-point  84 :   0.0000 0.0789 0.5000  plane waves:    1592
 k-point  85 :   0.0000 0.1053 0.5000  plane waves:    1592
 k-point  86 :   0.0000 0.1316 0.5000  plane waves:    1584
 k-point  87 :   0.0000 0.1579 0.5000  plane waves:    1584
 k-point  88 :   0.0000 0.1842 0.5000  plane waves:    1584
 k-point  89 :   0.0000 0.2105 0.5000  plane waves:    1584
 k-point  90 :   0.0000 0.2368 0.5000  plane waves:    1592
 k-point  91 :   0.0000 0.2632 0.5000  plane waves:    1588
 k-point  92 :   0.0000 0.2895 0.5000  plane waves:    1580
 k-point  93 :   0.0000 0.3158 0.5000  plane waves:    1572
 k-point  94 :   0.0000 0.3421 0.5000  plane waves:    1558
 k-point  95 :   0.0000 0.3684 0.5000  plane waves:    1564
 k-point  96 :   0.0000 0.3947 0.5000  plane waves:    1564
 k-point  97 :   0.0000 0.4211 0.5000  plane waves:    1564
 k-point  98 :   0.0000 0.4474 0.5000  plane waves:    1560
 k-point  99 :   0.0000 0.4737 0.5000  plane waves:    1552
 k-point 100 :   0.0000 0.5000 0.5000  plane waves:    1544
 k-point 101 :   0.0000 0.5000 0.5000  plane waves:    1544
 k-point 102 :   0.0000 0.5000 0.4737  plane waves:    1552
 k-point 103 :   0.0000 0.5000 0.4474  plane waves:    1558
 k-point 104 :   0.0000 0.5000 0.4211  plane waves:    1558
 k-point 105 :   0.0000 0.5000 0.3947  plane waves:    1558
 k-point 106 :   0.0000 0.5000 0.3684  plane waves:    1568
 k-point 107 :   0.0000 0.5000 0.3421  plane waves:    1572
 k-point 108 :   0.0000 0.5000 0.3158  plane waves:    1576
 k-point 109 :   0.0000 0.5000 0.2895  plane waves:    1582
 k-point 110 :   0.0000 0.5000 0.2632  plane waves:    1570
 k-point 111 :   0.0000 0.5000 0.2368  plane waves:    1570
 k-point 112 :   0.0000 0.5000 0.2105  plane waves:    1574
 k-point 113 :   0.0000 0.5000 0.1842  plane waves:    1586
 k-point 114 :   0.0000 0.5000 0.1579  plane waves:    1586
 k-point 115 :   0.0000 0.5000 0.1316  plane waves:    1588
 k-point 116 :   0.0000 0.5000 0.1053  plane waves:    1590
 k-point 117 :   0.0000 0.5000 0.0789  plane waves:    1598
 k-point 118 :   0.0000 0.5000 0.0526  plane waves:    1592
 k-point 119 :   0.0000 0.5000 0.0263  plane waves:    1592
 k-point 120 :   0.0000 0.5000 0.0000  plane waves:    1596
 k-point 121 :   0.0000 0.5000 0.0000  plane waves:    1596
 k-point 122 :   0.0000 0.4737 0.0000  plane waves:    1592
 k-point 123 :   0.0000 0.4474 0.0000  plane waves:    1592
 k-point 124 :   0.0000 0.4211 0.0000  plane waves:    1590
 k-point 125 :   0.0000 0.3947 0.0000  plane waves:    1590
 k-point 126 :   0.0000 0.3684 0.0000  plane waves:    1586
 k-point 127 :   0.0000 0.3421 0.0000  plane waves:    1583
 k-point 128 :   0.0000 0.3158 0.0000  plane waves:    1581
 k-point 129 :   0.0000 0.2895 0.0000  plane waves:    1581
 k-point 130 :   0.0000 0.2632 0.0000  plane waves:    1577
 k-point 131 :   0.0000 0.2368 0.0000  plane waves:    1579
 k-point 132 :   0.0000 0.2105 0.0000  plane waves:    1581
 k-point 133 :   0.0000 0.1842 0.0000  plane waves:    1575
 k-point 134 :   0.0000 0.1579 0.0000  plane waves:    1577
 k-point 135 :   0.0000 0.1316 0.0000  plane waves:    1577
 k-point 136 :   0.0000 0.1053 0.0000  plane waves:    1579
 k-point 137 :   0.0000 0.0789 0.0000  plane waves:    1573
 k-point 138 :   0.0000 0.0526 0.0000  plane waves:    1563
 k-point 139 :   0.0000 0.0263 0.0000  plane waves:    1559
 k-point 140 :   0.0000 0.0000 0.0000  plane waves:    1559

 maximum and minimum number of plane-waves per node :      1603     1538

 maximum number of plane-waves:      1603
 maximum index in each direction: 
   IXMAX=    8   IYMAX=    8   IZMAX=    5
   IXMIN=   -8   IYMIN=   -8   IZMIN=   -5


 serial   3D FFT for wavefunctions
 parallel 3D FFT for charge:
    minimum data exchange during FFTs selected (reduces bandwidth)


 total amount of memory used by VASP MPI-rank0   209700. kBytes
=======================================================================

   base      :      30000. kBytes
   nonl-proj :      64786. kBytes
   fftplans  :       3632. kBytes
   grid      :       6384. kBytes
   one-center:         93. kBytes
   wavefun   :     104805. kBytes
 
     INWAV:  cpu time    0.1446: real time    0.1446
 initial charge density was supplied:
 number of electron      47.9999979 magnetization 
 keeping initial charge density in first step


--------------------------------------------------------------------------------------------------------


 Maximum index for augmentation-charges         7591 (set IRDMAX)


--------------------------------------------------------------------------------------------------------


 First call to EWALD:  gamma=   0.448
 Maximum number of real-space cells 2x 2x 4
 Maximum number of reciprocal cells 3x 3x 2

    FEWALD:  cpu time    0.0011: real time    0.0011


--------------------------------------- Iteration      1(   1)  ---------------------------------------


    POTLOK:  cpu time    0.0310: real time    0.0332
    SETDIJ:  cpu time    0.0067: real time    0.0067
atom =   1  type =  1  l = 2
 
 onsite density matrix
 
spin component  1
 
  0.1986  0.0000 -0.0769  0.0000 -0.0000
  0.0000  0.1863  0.0000 -0.0864  0.0000
 -0.0769  0.0000  0.1324  0.0000  0.0000
  0.0000 -0.0864  0.0000  0.1863  0.0000
 -0.0000  0.0000  0.0000  0.0000  0.1020
 
spin component  2
 
  0.1986  0.0000 -0.0769  0.0000 -0.0000
  0.0000  0.1863  0.0000 -0.0864  0.0000
 -0.0769  0.0000  0.1324  0.0000  0.0000
  0.0000 -0.0864  0.0000  0.1863  0.0000
 -0.0000  0.0000  0.0000  0.0000  0.1020
 
 occupancies and eigenvectors
 
  o =  0.0818  v = -0.5498  0.0000 -0.8353  0.0000  0.0000  0.0000  0.0000  0.0000  0.0000  0.0000      0.0000  0.0000  0.0000  0.0000  0.0000  0.0000  0.0000  0.0000  0.0000  0.0000
  o =  0.0818  v =  0.0000  0.0000  0.0000  0.0000  0.0000 -0.5498  0.0000 -0.8353  0.0000  0.0000      0.0000  0.0000  0.0000  0.0000  0.0000  0.0000  0.0000  0.0000  0.0000  0.0000
  o =  0.0999  v =  0.0000 -0.7071  0.0000 -0.7071  0.0000  0.0000  0.0000  0.0000  0.0000  0.0000      0.0000  0.0000  0.0000  0.0000  0.0000  0.0000  0.0000  0.0000  0.0000  0.0000
  o =  0.0999  v =  0.0000  0.0000  0.0000  0.0000  0.0000  0.0000 -0.7071  0.0000 -0.7071  0.0000      0.0000  0.0000  0.0000  0.0000  0.0000  0.0000  0.0000  0.0000  0.0000  0.0000
  o =  0.1020  v = -0.0000 -0.0000 -0.0000  0.0000 -1.0000  0.0000  0.0000  0.0000  0.0000  0.0000      0.0000  0.0000  0.0000  0.0000  0.0000  0.0000  0.0000  0.0000  0.0000  0.0000
  o =  0.1020  v =  0.0000  0.0000  0.0000  0.0000  0.0000 -0.0000 -0.0000 -0.0000  0.0000 -1.0000      0.0000  0.0000  0.0000  0.0000  0.0000  0.0000  0.0000  0.0000  0.0000  0.0000
  o =  0.2492  v = -0.8353  0.0000  0.5498  0.0000  0.0000  0.0000  0.0000  0.0000  0.0000  0.0000      0.0000  0.0000  0.0000  0.0000  0.0000  0.0000  0.0000  0.0000  0.0000  0.0000
  o =  0.2492  v =  0.0000  0.0000  0.0000  0.0000  0.0000 -0.8353  0.0000  0.5498  0.0000  0.0000      0.0000  0.0000  0.0000  0.0000  0.0000  0.0000  0.0000  0.0000  0.0000  0.0000
  o =  0.2726  v =  0.0000  0.0000  0.0000  0.0000  0.0000  0.0000 -0.7071  0.0000  0.7071  0.0000      0.0000  0.0000  0.0000  0.0000  0.0000  0.0000  0.0000  0.0000  0.0000  0.0000
  o =  0.2726  v =  0.0000 -0.7071  0.0000  0.7071  0.0000  0.0000  0.0000  0.0000  0.0000  0.0000      0.0000  0.0000  0.0000  0.0000  0.0000  0.0000  0.0000  0.0000  0.0000  0.0000
 
atom =   2  type =  1  l = 2
 
 onsite density matrix
 
spin component  1
 
  0.1986  0.0000  0.0769  0.0000  0.0000
  0.0000  0.1863  0.0000  0.0864  0.0000
  0.0769  0.0000  0.1324  0.0000 -0.0000
  0.0000  0.0864  0.0000  0.1863  0.0000
  0.0000  0.0000 -0.0000  0.0000  0.1020
 
spin component  2
 
  0.1986  0.0000  0.0769  0.0000  0.0000
  0.0000  0.1863  0.0000  0.0864  0.0000
  0.0769  0.0000  0.1324  0.0000 -0.0000
  0.0000  0.0864  0.0000  0.1863  0.0000
  0.0000  0.0000 -0.0000  0.0000  0.1020
 
 occupancies and eigenvectors
 
  o =  0.0818  v = -0.5498 -0.0000  0.8353  0.0000  0.0000  0.0000  0.0000  0.0000  0.0000  0.0000      0.0000  0.0000  0.0000  0.0000  0.0000  0.0000  0.0000  0.0000  0.0000  0.0000
  o =  0.0818  v =  0.0000  0.0000  0.0000  0.0000  0.0000 -0.5498 -0.0000  0.8353  0.0000  0.0000      0.0000  0.0000  0.0000  0.0000  0.0000  0.0000  0.0000  0.0000  0.0000  0.0000
  o =  0.0999  v =  0.0000  0.7071  0.0000 -0.7071  0.0000  0.0000  0.0000  0.0000  0.0000  0.0000      0.0000  0.0000  0.0000  0.0000  0.0000  0.0000  0.0000  0.0000  0.0000  0.0000
  o =  0.0999  v =  0.0000  0.0000  0.0000  0.0000  0.0000  0.0000  0.7071  0.0000 -0.7071  0.0000      0.0000  0.0000  0.0000  0.0000  0.0000  0.0000  0.0000  0.0000  0.0000  0.0000
  o =  0.1020  v = -0.0000  0.0000  0.0000  0.0000 -1.0000  0.0000  0.0000  0.0000  0.0000  0.0000      0.0000  0.0000  0.0000  0.0000  0.0000  0.0000  0.0000  0.0000  0.0000  0.0000
  o =  0.1020  v =  0.0000  0.0000  0.0000  0.0000  0.0000 -0.0000  0.0000  0.0000  0.0000 -1.0000      0.0000  0.0000  0.0000  0.0000  0.0000  0.0000  0.0000  0.0000  0.0000  0.0000
  o =  0.2492  v = -0.8353 -0.0000 -0.5498  0.0000  0.0000  0.0000  0.0000  0.0000  0.0000  0.0000      0.0000  0.0000  0.0000  0.0000  0.0000  0.0000  0.0000  0.0000  0.0000  0.0000
  o =  0.2492  v =  0.0000  0.0000  0.0000  0.0000  0.0000 -0.8353 -0.0000 -0.5498  0.0000  0.0000      0.0000  0.0000  0.0000  0.0000  0.0000  0.0000  0.0000  0.0000  0.0000  0.0000
  o =  0.2726  v =  0.0000  0.0000  0.0000  0.0000  0.0000  0.0000  0.7071  0.0000  0.7071  0.0000      0.0000  0.0000  0.0000  0.0000  0.0000  0.0000  0.0000  0.0000  0.0000  0.0000
  o =  0.2726  v =  0.0000  0.7071  0.0000  0.7071  0.0000  0.0000  0.0000  0.0000  0.0000  0.0000      0.0000  0.0000  0.0000  0.0000  0.0000  0.0000  0.0000  0.0000  0.0000  0.0000
 
     EDDAV:  cpu time    5.3545: real time    5.3567
       DOS:  cpu time    0.0012: real time    0.0012
    --------------------------------------------
      LOOP:  cpu time    5.3934: real time    5.3979

 eigenvalue-minimisations  : 10408
 total energy-change (2. order) :-0.2772590E+02  (-0.1203036E+03)
 number of electron      47.9999979 magnetization 
 augmentation part       47.9999979 magnetization 

 Free energy of the ion-electron system (eV)
  ---------------------------------------------------
  alpha Z        PSCENC =       184.33841299
  Ewald energy   TEWEN  =     -3605.32907450
  -Hartree energ DENC   =     -1218.09309747
  -exchange      EXHF   =         0.00000000
  -V(xc)+E(xc)   XCENC  =       236.15267559
  PAW double counting   =      7130.08114141    -7100.47968611
  entropy T*S    EENTRO =        -0.00000000
  eigenvalues    EBANDS =      -560.05454335
  atomic energy  EATOM  =      4905.65827411
  Solvation  Ediel_sol  =         0.00000000
  ---------------------------------------------------
  free energy    TOTEN  =       -27.72589732 eV

  energy without entropy =      -27.72589732  energy(sigma->0) =      -27.72589732


--------------------------------------------------------------------------------------------------------




--------------------------------------- Iteration      1(   2)  ---------------------------------------


     EDDAV:  cpu time    4.4897: real time    4.4899
       DOS:  cpu time    0.0011: real time    0.0011
    --------------------------------------------
      LOOP:  cpu time    4.4908: real time    4.4910

 eigenvalue-minimisations  :  8176
 total energy-change (2. order) :-0.1942684E+02  (-0.1935704E+02)
 number of electron      47.9999979 magnetization 
 augmentation part       47.9999979 magnetization 

 Free energy of the ion-electron system (eV)
  ---------------------------------------------------
  alpha Z        PSCENC =       184.33841299
  Ewald energy   TEWEN  =     -3605.32907450
  -Hartree energ DENC   =     -1218.09309747
  -exchange      EXHF   =         0.00000000
  -V(xc)+E(xc)   XCENC  =       236.15267559
  PAW double counting   =      7130.08114141    -7100.47968611
  entropy T*S    EENTRO =        -0.00000000
  eigenvalues    EBANDS =      -579.48138467
  atomic energy  EATOM  =      4905.65827411
  Solvation  Ediel_sol  =         0.00000000
  ---------------------------------------------------
  free energy    TOTEN  =       -47.15273863 eV

  energy without entropy =      -47.15273863  energy(sigma->0) =      -47.15273863


--------------------------------------------------------------------------------------------------------




--------------------------------------- Iteration      1(   3)  ---------------------------------------


     EDDAV:  cpu time    5.7719: real time    5.7720
       DOS:  cpu time    0.0010: real time    0.0010
    --------------------------------------------
      LOOP:  cpu time    5.7730: real time    5.7730

 eigenvalue-minimisations  : 11524
 total energy-change (2. order) :-0.8805736E+00  (-0.8796297E+00)
 number of electron      47.9999979 magnetization 
 augmentation part       47.9999979 magnetization 

 Free energy of the ion-electron system (eV)
  ---------------------------------------------------
  alpha Z        PSCENC =       184.33841299
  Ewald energy   TEWEN  =     -3605.32907450
  -Hartree energ DENC   =     -1218.09309747
  -exchange      EXHF   =         0.00000000
  -V(xc)+E(xc)   XCENC  =       236.15267559
  PAW double counting   =      7130.08114141    -7100.47968611
  entropy T*S    EENTRO =        -0.00000000
  eigenvalues    EBANDS =      -580.36195830
  atomic energy  EATOM  =      4905.65827411
  Solvation  Ediel_sol  =         0.00000000
  ---------------------------------------------------
  free energy    TOTEN  =       -48.03331227 eV

  energy without entropy =      -48.03331227  energy(sigma->0) =      -48.03331227


--------------------------------------------------------------------------------------------------------




--------------------------------------- Iteration      1(   4)  ---------------------------------------


     EDDAV:  cpu time    5.0516: real time    5.0543
       DOS:  cpu time    0.0012: real time    0.0012
    --------------------------------------------
      LOOP:  cpu time    5.0527: real time    5.0554

 eigenvalue-minimisations  :  9612
 total energy-change (2. order) :-0.1353426E-01  (-0.1349969E-01)
 number of electron      47.9999979 magnetization 
 augmentation part       47.9999979 magnetization 

 Free energy of the ion-electron system (eV)
  ---------------------------------------------------
  alpha Z        PSCENC =       184.33841299
  Ewald energy   TEWEN  =     -3605.32907450
  -Hartree energ DENC   =     -1218.09309747
  -exchange      EXHF   =         0.00000000
  -V(xc)+E(xc)   XCENC  =       236.15267559
  PAW double counting   =      7130.08114141    -7100.47968611
  entropy T*S    EENTRO =        -0.00000000
  eigenvalues    EBANDS =      -580.37549257
  atomic energy  EATOM  =      4905.65827411
  Solvation  Ediel_sol  =         0.00000000
  ---------------------------------------------------
  free energy    TOTEN  =       -48.04684653 eV

  energy without entropy =      -48.04684653  energy(sigma->0) =      -48.04684653


--------------------------------------------------------------------------------------------------------




--------------------------------------- Iteration      1(   5)  ---------------------------------------


     EDDAV:  cpu time    5.6216: real time    5.6260
       DOS:  cpu time    0.0010: real time    0.0010
    --------------------------------------------
      LOOP:  cpu time    5.6225: real time    5.6269

 eigenvalue-minimisations  : 11308
 total energy-change (2. order) :-0.3565483E-03  (-0.3563888E-03)
 number of electron      47.9999979 magnetization 
 augmentation part       47.9999979 magnetization 

 Free energy of the ion-electron system (eV)
  ---------------------------------------------------
  alpha Z        PSCENC =       184.33841299
  Ewald energy   TEWEN  =     -3605.32907450
  -Hartree energ DENC   =     -1218.09309747
  -exchange      EXHF   =         0.00000000
  -V(xc)+E(xc)   XCENC  =       236.15267559
  PAW double counting   =      7130.08114141    -7100.47968611
  entropy T*S    EENTRO =        -0.00000000
  eigenvalues    EBANDS =      -580.37584911
  atomic energy  EATOM  =      4905.65827411
  Solvation  Ediel_sol  =         0.00000000
  ---------------------------------------------------
  free energy    TOTEN  =       -48.04720308 eV

  energy without entropy =      -48.04720308  energy(sigma->0) =      -48.04720308


--------------------------------------------------------------------------------------------------------




--------------------------------------- Iteration      1(   6)  ---------------------------------------


     EDDAV:  cpu time    4.4052: real time    4.4094
       DOS:  cpu time    0.0012: real time    0.0012
    --------------------------------------------
      LOOP:  cpu time    4.4064: real time    4.4106

 eigenvalue-minimisations  :  7768
 total energy-change (2. order) :-0.4414397E-05  (-0.4408467E-05)
 number of electron      47.9999979 magnetization 
 augmentation part       47.9999979 magnetization 

 Free energy of the ion-electron system (eV)
  ---------------------------------------------------
  alpha Z        PSCENC =       184.33841299
  Ewald energy   TEWEN  =     -3605.32907450
  -Hartree energ DENC   =     -1218.09309747
  -exchange      EXHF   =         0.00000000
  -V(xc)+E(xc)   XCENC  =       236.15267559
  PAW double counting   =      7130.08114141    -7100.47968611
  entropy T*S    EENTRO =        -0.00000000
  eigenvalues    EBANDS =      -580.37585353
  atomic energy  EATOM  =      4905.65827411
  Solvation  Ediel_sol  =         0.00000000
  ---------------------------------------------------
  free energy    TOTEN  =       -48.04720750 eV

  energy without entropy =      -48.04720750  energy(sigma->0) =      -48.04720750


--------------------------------------------------------------------------------------------------------




 average (electrostatic) potential at core
  the test charge radii are     1.0397  0.8742
  (the norm of the test charge is              1.0000)
       1 -76.5322       2 -76.5322       3 -78.5865       4 -78.5865       5 -78.5865
       6 -78.5865
 
 
 
 E-fermi :   5.7989     XC(G=0): -11.4644     alpha+bet :-14.2541

 Fermi energy:         5.7989414472

 k-point     1 :       0.0000    0.0000    0.5000
  band No.  band energies     occupation 
      1     -52.3009      2.00000
      2     -52.3009      2.00000
      3     -28.8190      2.00000
      4     -28.8190      2.00000
      5     -28.4716      2.00000
      6     -28.4716      2.00000
      7     -28.4562      2.00000
      8     -28.4562      2.00000
      9     -11.3024      2.00000
     10     -11.3024      2.00000
     11     -11.2940      2.00000
     12     -11.2940      2.00000
     13       0.9995      2.00000
     14       0.9995      2.00000
     15       1.7687      2.00000
     16       1.7687      2.00000
     17       1.8409      2.00000
     18       1.8409      2.00000
     19       2.7083      2.00000
     20       2.7083      2.00000
     21       3.2003      2.00000
     22       3.2003      2.00000
     23       4.1000      2.00000
     24       4.1000      2.00000
     25       9.1791      0.00000
     26       9.3292      0.00000
     27       9.3292      0.00000
     28       9.6668      0.00000

 k-point     2 :       0.0263    0.0263    0.5000
  band No.  band energies     occupation 
      1     -52.3009      2.00000
      2     -52.3009      2.00000
      3     -28.8192      2.00000
      4     -28.8190      2.00000
      5     -28.4716      2.00000
      6     -28.4713      2.00000
      7     -28.4562      2.00000
      8     -28.4561      2.00000
      9     -11.3514      2.00000
     10     -11.3031      2.00000
     11     -11.2931      2.00000
     12     -11.2445      2.00000
     13       0.9912      2.00000
     14       1.0041      2.00000
     15       1.6478      2.00000
     16       1.7615      2.00000
     17       1.8234      2.00000
     18       1.9784      2.00000
     19       2.7081      2.00000
     20       2.7103      2.00000
     21       3.2075      2.00000
     22       3.2243      2.00000
     23       4.0892      2.00000
     24       4.1007      2.00000
     25       9.0374      0.00000
     26       9.0699      0.00000
     27       9.3294      0.00000
     28       9.3302      0.00000

 k-point     3 :       0.0526    0.0526    0.5000
  band No.  band energies     occupation 
      1     -52.3009      2.00000
      2     -52.3009      2.00000
      3     -28.8199      2.00000
      4     -28.8191      2.00000
      5     -28.4717      2.00000
      6     -28.4706      2.00000
      7     -28.4562      2.00000
      8     -28.4561      2.00000
      9     -11.4025      2.00000
     10     -11.3051      2.00000
     11     -11.2906      2.00000
     12     -11.1919      2.00000
     13       0.9648      2.00000
     14       1.0177      2.00000
     15       1.5203      2.00000
     16       1.7403      2.00000
     17       1.7745      2.00000
     18       2.1566      2.00000
     19       2.7076      2.00000
     20       2.7162      2.00000
     21       3.2289      2.00000
     22       3.2924      2.00000
     23       4.0577      2.00000
     24       4.1028      2.00000
     25       8.9492      0.00000
     26       9.1048      0.00000
     27       9.3301      0.00000
     28       9.3335      0.00000

 k-point     4 :       0.0789    0.0789    0.5000
  band No.  band energies     occupation 
      1     -52.3009      2.00000
      2     -52.3009      2.00000
      3     -28.8211      2.00000
      4     -28.8192      2.00000
      5     -28.4717      2.00000
      6     -28.4694      2.00000
      7     -28.4562      2.00000
      8     -28.4559      2.00000
      9     -11.4504      2.00000
     10     -11.3084      2.00000
     11     -11.2866      2.00000
     12     -11.1416      2.00000
     13       0.9177      2.00000
     14       1.0398      2.00000
     15       1.4212      2.00000
     16       1.7030      2.00000
     17       1.7069      2.00000
     18       2.3406      2.00000
     19       2.7069      2.00000
     20       2.7251      2.00000
     21       3.2639      2.00000
     22       3.3953      2.00000
     23       4.0082      2.00000
     24       4.1064      2.00000
     25       8.8390      0.00000
     26       9.0331      0.00000
     27       9.3310      0.00000
     28       9.3379      0.00000

 k-point     5 :       0.1053    0.1053    0.5000
  band No.  band energies     occupation 
      1     -52.3009      2.00000
      2     -52.3009      2.00000
      3     -28.8224      2.00000
      4     -28.8194      2.00000
      5     -28.4718      2.00000
      6     -28.4679      2.00000
      7     -28.4563      2.00000
      8     -28.4558      2.00000
      9     -11.4940      2.00000
     10     -11.3128      2.00000
     11     -11.2810      2.00000
     12     -11.0951      2.00000
     13       0.8510      2.00000
     14       1.0693      2.00000
[...]
     14       0.4425      2.00000
     15       1.0309      2.00000
     16       1.7605      2.00000
     17       1.7715      2.00000
     18       2.5848      2.00000
     19       2.7748      2.00000
     20       3.5057      2.00000
     21       4.1885      2.00000
     22       4.4620      2.00000
     23       4.7374      2.00000
     24       5.3714      2.00000
     25       8.1911      0.00000
     26       8.4764      0.00000
     27       8.8401      0.00000
     28       8.8610      0.00000

 k-point   132 :       0.0000    0.2105    0.0000
  band No.  band energies     occupation 
      1     -52.3468      2.00000
      2     -52.3337      2.00000
      3     -28.5923      2.00000
      4     -28.5911      2.00000
      5     -28.4675      2.00000
      6     -28.4664      2.00000
      7     -28.4043      2.00000
      8     -28.3787      2.00000
      9     -12.6226      2.00000
     10     -11.5425      2.00000
     11     -10.9845      2.00000
     12     -10.8987      2.00000
     13      -0.0211      2.00000
     14       0.4067      2.00000
     15       0.9511      2.00000
     16       1.7575      2.00000
     17       1.7673      2.00000
     18       2.6350      2.00000
     19       2.8005      2.00000
     20       3.4894      2.00000
     21       4.3475      2.00000
     22       4.5187      2.00000
     23       4.7781      2.00000
     24       5.4186      2.00000
     25       8.1475      0.00000
     26       8.4287      0.00000
     27       8.7849      0.00000
     28       8.7930      0.00000

 k-point   133 :       0.0000    0.1842    0.0000
  band No.  band energies     occupation 
      1     -52.3472      2.00000
      2     -52.3333      2.00000
      3     -28.5952      2.00000
      4     -28.5943      2.00000
      5     -28.4640      2.00000
      6     -28.4631      2.00000
      7     -28.4051      2.00000
      8     -28.3779      2.00000
      9     -12.6585      2.00000
     10     -11.5311      2.00000
     11     -10.9584      2.00000
     12     -10.8875      2.00000
     13      -0.0813      2.00000
     14       0.3729      2.00000
     15       0.8819      2.00000
     16       1.7549      2.00000
     17       1.7631      2.00000
     18       2.6835      2.00000
     19       2.8213      2.00000
     20       3.4759      2.00000
     21       4.4959      2.00000
     22       4.5716      2.00000
     23       4.8235      2.00000
     24       5.4612      2.00000
     25       8.1059      0.00000
     26       8.3786      0.00000
     27       8.7296      0.00000
     28       8.7390      0.00000

 k-point   134 :       0.0000    0.1579    0.0000
  band No.  band energies     occupation 
      1     -52.3475      2.00000
      2     -52.3329      2.00000
      3     -28.5979      2.00000
      4     -28.5972      2.00000
      5     -28.4609      2.00000
      6     -28.4603      2.00000
      7     -28.4058      2.00000
      8     -28.3772      2.00000
      9     -12.6900      2.00000
     10     -11.5233      2.00000
     11     -10.9328      2.00000
     12     -10.8774      2.00000
     13      -0.1364      2.00000
     14       0.3420      2.00000
     15       0.8227      2.00000
     16       1.7525      2.00000
     17       1.7590      2.00000
     18       2.7288      2.00000
     19       2.8373      2.00000
     20       3.4648      2.00000
     21       4.6198      2.00000
     22       4.6316      2.00000
     23       4.8710      2.00000
     24       5.4986      2.00000
     25       8.0671      0.00000
     26       8.3271      0.00000
     27       8.6764      0.00000
     28       8.6973      0.00000

 k-point   135 :       0.0000    0.1316    0.0000
  band No.  band energies     occupation 
      1     -52.3478      2.00000
      2     -52.3326      2.00000
      3     -28.6001      2.00000
      4     -28.5996      2.00000
      5     -28.4583      2.00000
      6     -28.4578      2.00000
      7     -28.4064      2.00000
      8     -28.3766      2.00000
      9     -12.7169      2.00000
     10     -11.5179      2.00000
     11     -10.9091      2.00000
     12     -10.8687      2.00000
     13      -0.1852      2.00000
     14       0.3147      2.00000
     15       0.7734      2.00000
     16       1.7504      2.00000
     17       1.7552      2.00000
     18       2.7697      2.00000
     19       2.8494      2.00000
     20       3.4560      2.00000
     21       4.6625      2.00000
     22       4.7524      2.00000
     23       4.9181      2.00000
     24       5.5304      2.00000
     25       8.0323      0.00000
     26       8.2799      0.00000
     27       8.6293      0.00000
     28       8.6763      0.00000

 k-point   136 :       0.0000    0.1053    0.0000
  band No.  band energies     occupation 
      1     -52.3481      2.00000
      2     -52.3324      2.00000
      3     -28.6020      2.00000
      4     -28.6016      2.00000
      5     -28.4560      2.00000
      6     -28.4557      2.00000
      7     -28.4069      2.00000
      8     -28.3761      2.00000
      9     -12.7391      2.00000
     10     -11.5145      2.00000
     11     -10.8883      2.00000
     12     -10.8614      2.00000
     13      -0.2266      2.00000
     14       0.2916      2.00000
     15       0.7335      2.00000
     16       1.7487      2.00000
     17       1.7520      2.00000
     18       2.8048      2.00000
     19       2.8581      2.00000
     20       3.4491      2.00000
     21       4.6988      2.00000
     22       4.8558      2.00000
     23       4.9618      2.00000
     24       5.5562      2.00000
     25       8.0023      0.00000
     26       8.2357      0.00000
     27       8.5890      0.00000
     28       8.6538      0.00000

 k-point   137 :       0.0000    0.0789    0.0000
  band No.  band energies     occupation 
      1     -52.3483      2.00000
      2     -52.3322      2.00000
      3     -28.6034      2.00000
      4     -28.6032      2.00000
      5     -28.4543      2.00000
      6     -28.4541      2.00000
      7     -28.4073      2.00000
      8     -28.3758      2.00000
      9     -12.7565      2.00000
     10     -11.5123      2.00000
     11     -10.8712      2.00000
     12     -10.8557      2.00000
     13      -0.2597      2.00000
     14       0.2732      2.00000
     15       0.7029      2.00000
     16       1.7474      2.00000
     17       1.7493      2.00000
     18       2.8333      2.00000
     19       2.8643      2.00000
     20       3.4441      2.00000
     21       4.7278      2.00000
     22       4.9396      2.00000
     23       4.9993      2.00000
     24       5.5761      2.00000
     25       7.9778      0.00000
     26       8.1968      0.00000
     27       8.5565      0.00000
     28       8.6276      0.00000

 k-point   138 :       0.0000    0.0526    0.0000
  band No.  band energies     occupation 
      1     -52.3484      2.00000
      2     -52.3320      2.00000
      3     -28.6045      2.00000
      4     -28.6044      2.00000
      5     -28.4530      2.00000
      6     -28.4529      2.00000
      7     -28.4075      2.00000
      8     -28.3755      2.00000
      9     -12.7690      2.00000
     10     -11.5110      2.00000
     11     -10.8585      2.00000
     12     -10.8515      2.00000
     13      -0.2839      2.00000
     14       0.2599      2.00000
     15       0.6812      2.00000
     16       1.7465      2.00000
     17       1.7473      2.00000
     18       2.8542      2.00000
     19       2.8683      2.00000
     20       3.4405      2.00000
     21       4.7492      2.00000
     22       5.0016      2.00000
     23       5.0281      2.00000
     24       5.5900      2.00000
     25       7.9596      0.00000
     26       8.1677      0.00000
     27       8.5326      0.00000
     28       8.6079      0.00000

 k-point   139 :       0.0000    0.0263    0.0000
  band No.  band energies     occupation 
      1     -52.3485      2.00000
      2     -52.3319      2.00000
      3     -28.6051      2.00000
      4     -28.6051      2.00000
      5     -28.4522      2.00000
      6     -28.4522      2.00000
      7     -28.4077      2.00000
      8     -28.3753      2.00000
      9     -12.7765      2.00000
     10     -11.5103      2.00000
     11     -10.8508      2.00000
     12     -10.8490      2.00000
     13      -0.2986      2.00000
     14       0.2518      2.00000
     15       0.6682      2.00000
     16       1.7459      2.00000
     17       1.7461      2.00000
     18       2.8671      2.00000
     19       2.8706      2.00000
     20       3.4385      2.00000
     21       4.7622      2.00000
     22       5.0397      2.00000
     23       5.0463      2.00000
     24       5.5982      2.00000
     25       7.9490      0.00000
     26       8.1640      0.00000
     27       8.5180      0.00000
     28       8.5956      0.00000

 k-point   140 :       0.0000    0.0000    0.0000
  band No.  band energies     occupation 
      1     -52.3486      2.00000
      2     -52.3319      2.00000
      3     -28.6053      2.00000
      4     -28.6053      2.00000
      5     -28.4520      2.00000
      6     -28.4520      2.00000
      7     -28.4078      2.00000
      8     -28.3753      2.00000
      9     -12.7791      2.00000
     10     -11.5101      2.00000
     11     -10.8482      2.00000
     12     -10.8482      2.00000
     13      -0.3035      2.00000
     14       0.2490      2.00000
     15       0.6639      2.00000
     16       1.7457      2.00000
     17       1.7457      2.00000
     18       2.8714      2.00000
     19       2.8714      2.00000
     20       3.4378      2.00000
     21       4.7666      2.00000
     22       5.0526      2.00000
     23       5.0526      2.00000
     24       5.6009      2.00000
     25       7.9469      0.00000
     26       8.5119      0.00000
     27       8.5232      0.00000
     28       8.5914      0.00000


--------------------------------------------------------------------------------------------------------


 soft charge-density along one line, spin component           1
         0         1         2         3         4         5         6         7         8         9
 total charge-density along one line
 
 pseudopotential strength for first ion, spin component:           1
 -3.434 -21.691  -0.000  -0.000   0.000   0.000   0.000  -0.000
-21.691   9.443  -0.000  -0.000   0.000  -0.000  -0.000   0.000
 -0.000  -0.000 -25.000   0.000   0.006   8.868  -0.000  -0.004
 -0.000  -0.000   0.000 -25.009   0.000  -0.000   8.873  -0.000
  0.000   0.000   0.006   0.000 -25.000  -0.004  -0.000   8.868
  0.000  -0.000   8.868  -0.000  -0.004   5.702   0.000   0.001
  0.000  -0.000  -0.000   8.873  -0.000   0.000   5.703   0.000
 -0.000   0.000  -0.004  -0.000   8.868   0.001   0.000   5.702
  0.004   0.002   0.000   0.000  -0.000  -0.000  -0.000   0.000
  0.000   0.000  -0.000   0.000   0.000   0.000  -0.000  -0.000
 -0.004  -0.001   0.000  -0.000  -0.000  -0.000   0.000   0.000
  0.000   0.000   0.000   0.000  -0.000  -0.000  -0.000   0.000
 -0.000  -0.000  -0.000  -0.000   0.000   0.000   0.000  -0.000
  0.005   0.002   0.000   0.000  -0.000  -0.000  -0.000   0.000
  0.000   0.000  -0.000   0.000   0.000   0.000  -0.000  -0.000
 -0.005  -0.002   0.000  -0.000  -0.000  -0.000   0.000   0.000
  0.000   0.000   0.000   0.000  -0.000  -0.000  -0.000   0.000
 -0.000  -0.000  -0.000  -0.000   0.000   0.000   0.000  -0.000
 total augmentation occupancy for first ion, spin component:           1
  2.000   0.000   0.000   0.000   0.000   0.000   0.000   0.000   0.000   0.000   0.000   0.000   0.000   0.000   0.000   0.000
  0.000   1.000   0.000   0.000   0.000   0.000   0.000   0.000   0.000   0.000   0.000   0.000   0.000   0.000   0.000   0.000
  0.000   0.000   2.000   0.000   0.000   0.000   0.000   0.000   0.000   0.000   0.000   0.000   0.000   0.000   0.000   0.000
  0.000   0.000   0.000   2.000   0.000   0.000   0.000   0.000   0.000   0.000   0.000   0.000   0.000   0.000   0.000   0.000
  0.000   0.000   0.000   0.000   2.000   0.000   0.000   0.000   0.000   0.000   0.000   0.000   0.000   0.000   0.000   0.000
  0.000   0.000   0.000   0.000   0.000   0.000   0.000   0.000   0.000   0.000   0.000   0.000   0.000   0.000   0.000   0.000
  0.000   0.000   0.000   0.000   0.000   0.000   0.000   0.000   0.000   0.000   0.000   0.000   0.000   0.000   0.000   0.000
  0.000   0.000   0.000   0.000   0.000   0.000   0.000   0.000   0.000   0.000   0.000   0.000   0.000   0.000   0.000   0.000
  0.000   0.000   0.000   0.000   0.000   0.000   0.000   0.000   0.600   0.000   0.000   0.000   0.000   0.000   0.000   0.000
  0.000   0.000   0.000   0.000   0.000   0.000   0.000   0.000   0.000   0.600   0.000   0.000   0.000   0.000   0.000   0.000
  0.000   0.000   0.000   0.000   0.000   0.000   0.000   0.000   0.000   0.000   0.600   0.000   0.000   0.000   0.000   0.000
  0.000   0.000   0.000   0.000   0.000   0.000   0.000   0.000   0.000   0.000   0.000   0.600   0.000   0.000   0.000   0.000
  0.000   0.000   0.000   0.000   0.000   0.000   0.000   0.000   0.000   0.000   0.000   0.000   0.600   0.000   0.000   0.000
  0.000   0.000   0.000   0.000   0.000   0.000   0.000   0.000   0.000   0.000   0.000   0.000   0.000   0.000   0.000   0.000
  0.000   0.000   0.000   0.000   0.000   0.000   0.000   0.000   0.000   0.000   0.000   0.000   0.000   0.000   0.000   0.000
  0.000   0.000   0.000   0.000   0.000   0.000   0.000   0.000   0.000   0.000   0.000   0.000   0.000   0.000   0.000   0.000
  0.000   0.000   0.000   0.000   0.000   0.000   0.000   0.000   0.000   0.000   0.000   0.000   0.000   0.000   0.000   0.000
  0.000   0.000   0.000   0.000   0.000   0.000   0.000   0.000   0.000   0.000   0.000   0.000   0.000   0.000   0.000   0.000


------------------------ aborting loop because EDIFF is reached ----------------------------------------


    CHARGE:  cpu time    0.3606: real time    0.3608
    FORLOC:  cpu time    0.0042: real time    0.0042
    FORNL :  cpu time    1.9233: real time    1.9245
    STRESS:  cpu time    3.1007: real time    3.1031
    FORCOR:  cpu time    0.0290: real time    0.0292
    FORHAR:  cpu time    0.0082: real time    0.0082
    OFIELD:  cpu time    0.0001: real time    0.0001

  FORCE on cell =-STRESS in cart. coord.  units (eV):
  Direction    XX          YY          ZZ          XY          YZ          ZX
  --------------------------------------------------------------------------------------
  Alpha Z   184.33841   184.33841   184.33841
  Ewald   -1386.37292 -1386.37292  -832.58596     0.00000     0.00000     0.00000
  Hartree   301.47845   301.47845   612.05989    -0.00000    -0.00000    -0.00000
  E(xc)    -246.74296  -246.74296  -246.07947    -0.00000    -0.00000     0.00000
  Local      82.19943    82.19943  -770.67875    -0.00000    -0.00000    -0.00000
  n-local    21.25312    20.18459    16.24020    -0.42752     0.00014     0.00017
  augment   291.68923   291.68923   291.67225    -0.00000    -0.00000    -0.00000
  Kinetic   758.33095   760.34095   753.67568     0.06865    -0.00016    -0.00013
  Fock        0.00000     0.00000     0.00000     0.00000     0.00000     0.00000
  -------------------------------------------------------------------------------------
  Total       6.64445     6.64445     8.64226     0.00000     0.00000     0.00000
  in kB     171.56038   171.56038   223.14397     0.00000     0.00000     0.00000
  external pressure =      188.75 kB  Pullay stress =        0.00 kB


 VOLUME and BASIS-vectors are now :
 -----------------------------------------------------------------------------
  energy-cutoff  :      500.00
  volume of cell :       62.05
      direct lattice vectors                 reciprocal lattice vectors
     4.584000000  0.000000000  0.000000000     0.218150087  0.000000000  0.000000000
     0.000000000  4.584000000  0.000000000     0.000000000  0.218150087  0.000000000
     0.000000000  0.000000000  2.953000000     0.000000000  0.000000000  0.338638673

  length of vectors
     4.584000000  4.584000000  2.953000000     0.218150087  0.218150087  0.338638673


 FORCES acting on ions
    electron-ion (+dipol)            ewald-force                    non-local-force                 convergence-correction
 -----------------------------------------------------------------------------------------------
   -.194E-13 -.299E-14 -.736E-13   0.853E-13 0.568E-13 0.110E-13   0.879E-21 -.140E-21 0.149E-21   0.183E-11 0.173E-11 -.164E-11
   0.113E-11 0.406E-11 0.295E-11   -.568E-13 0.000E+00 0.128E-13   -.314E-21 0.318E-21 0.143E-21   0.272E-12 -.874E-12 0.396E-10
   -.413E+02 0.413E+02 0.114E-11   0.454E+02 -.454E+02 -.972E-14   -.390E+01 0.390E+01 0.320E-21   -.118E+00 0.118E+00 -.205E-13
   0.413E+02 -.413E+02 -.405E-11   -.454E+02 0.454E+02 -.920E-14   0.390E+01 -.390E+01 0.134E-21   0.118E+00 -.118E+00 0.353E-11
   0.413E+02 0.413E+02 0.204E-06   -.454E+02 -.454E+02 -.805E-14   0.390E+01 0.390E+01 0.387E-21   0.118E+00 0.118E+00 -.117E-11
   -.413E+02 -.413E+02 -.204E-06   0.454E+02 0.454E+02 -.767E-14   -.390E+01 -.390E+01 0.290E-21   -.118E+00 -.118E+00 -.396E-11
 -----------------------------------------------------------------------------------------------
   0.200E-11 0.325E-11 0.698E-11   -.711E-14 -.711E-14 -.108E-13   -.444E-15 0.000E+00 0.142E-20   0.224E-11 0.138E-11 0.364E-10
 
 
 POSITION                                       TOTAL-FORCE (eV/Angst)
 -----------------------------------------------------------------------------------
      0.00000      0.00000      0.00000         0.000000      0.000000     -0.000000
      2.29200      2.29200      1.47650        -0.000000     -0.000000     -0.000000
      0.89942      3.68458      1.47650         0.147590     -0.147590     -0.000000
      3.68458      0.89942      1.47650        -0.147590      0.147590      0.000000
      1.39258      1.39258      0.00000        -0.147590     -0.147590     -0.000000
      3.19142      3.19142      0.00000         0.147590      0.147590      0.000000
 -----------------------------------------------------------------------------------
    total drift:                                0.000000      0.000000      0.000000


--------------------------------------------------------------------------------------------------------



  FREE ENERGIE OF THE ION-ELECTRON SYSTEM (eV)
  ---------------------------------------------------
  free  energy   TOTEN  =       -48.04720750 eV

  energy  without entropy=      -48.04720750  energy(sigma->0) =      -48.04720750
 


--------------------------------------------------------------------------------------------------------


    POTLOK:  cpu time    0.0335: real time    0.0335


--------------------------------------------------------------------------------------------------------


 writing wavefunctions
     LOOP+:  cpu time   36.4435: real time   37.6088
    4ORBIT:  cpu time    0.0000: real time    0.0000

 total amount of memory used by VASP MPI-rank0   209700. kBytes
=======================================================================

   base      :      30000. kBytes
   nonl-proj :      64786. kBytes
   fftplans  :       3632. kBytes
   grid      :       6384. kBytes
   one-center:         93. kBytes
   wavefun   :     104805. kBytes
 
  
  
 General timing and accounting informations for this job:
 ========================================================
  
                  Total CPU time used (sec):       37.624
                            User time (sec):       37.244
                          System time (sec):        0.380
                         Elapsed time (sec):       39.760
  
                   Maximum memory used (kb):      357624.
                   Average memory used (kb):          N/A
  
                          Minor page faults:        47848
                          Major page faults:          515
                 Voluntary context switches:         3859
