TiO2                                    
   1.00000000000000     
     4.584000    0.000000    0.000000
     0.000000    4.584000    0.000000
     0.000000    0.000000    2.953000
   Ti   O 
     2     4
Direct
  0.000000  0.000000  0.000000
  0.500000  0.500000  0.500000
  0.196209  0.803791  0.500000
  0.803791  0.196209  0.500000
  0.303791  0.303791  0.000000
  0.696209  0.696209  0.000000
 
   48   48   32
  927.57      891.44      791.07      647.73      488.90      339.85      217.42      128.13      70.206      37.155    
  20.911      13.708      9.9853      7.9333      6.7246      5.8918      5.1975      4.5553      3.9706      3.4657    
  3.0375      2.6818      2.4173      2.2631      2.2146      2.2631      2.4173      2.6818      3.0375      3.4657    
  3.9706      4.5553      5.1975      5.8918      6.7246      7.9333      9.9853      13.708      20.911      37.155    
  70.206      128.13      217.42      339.85      488.90      647.73      791.07      891.44      891.44      856.87    
  760.81      623.70      471.74      328.96      211.36      125.34      69.407      37.532      21.965      15.081    
  11.497      9.5083      8.3027      7.4173      6.6212      5.8390      5.0895      4.4063      3.7964      3.2628    
  2.8289      2.5154      2.3175      2.2256      2.2454      2.3787      2.6051      2.9064      3.2898      3.7638    
  4.3141      4.9415      5.7322      6.9128      8.9279      12.571      19.514      34.975      66.444      121.79    
  207.41      325.15      468.73      621.83      759.98      856.64      791.07      760.81      676.25      555.47    
  421.44      295.17      190.83      114.28      64.549      36.438      22.923      16.897      13.690      11.888    
  10.729      9.7769      8.8262      7.8279      6.8255      5.8730      4.9944      4.2062      3.5387      3.0158    
  2.6349      2.3864      2.2726      2.2900      2.4145      2.6254      2.9277      3.3306      3.8243      4.4114    
  5.1683      6.2951      8.1879      11.561      17.774      31.220      58.719      107.45      183.22      287.70    
  415.24      551.29      674.04      759.98      647.73      623.70      555.47      457.64      348.73      245.72    
  160.29      97.577      57.127      34.730      24.286      19.532      16.984      15.537      14.493      13.456    
  12.261      10.909      9.4906      8.1018      6.8014      5.6292      4.6250      3.8133      3.1914      2.7475    
  2.4780      2.3721      2.4011      2.5390      2.7838      3.1408      3.6013      4.1661      4.8948      5.9497    
  7.6590      10.624      15.863      26.558      48.531      87.935      149.66      235.05      339.40      450.75    
  551.29      621.83      488.90      471.74      421.44      348.73      267.32      189.98      125.73      78.853    
  49.261      33.609      26.741      23.602      22.081      21.243      20.432      19.287      17.697      15.747    
  13.618      11.490      9.4929      7.7116      6.1996      4.9754      4.0251      3.3252      2.8585      2.6027    
  2.5225      2.5852      2.7781      3.0979      3.5348      4.0856      4.7897      5.7652      7.2622      9.7516    
  13.994      21.843      37.805      66.882      112.96      177.06      255.56      339.40      415.24      468.73    
  339.85      328.96      295.17      245.72      189.98      136.89      93.067      61.826      43.152      34.318    
  31.046      30.024      30.046      30.201      29.818      28.540      26.325      23.383      20.052      16.672    
  13.510      10.736      8.4304      6.5957      5.1861      4.1441      3.4217      2.9754      2.7591      2.7311    
  2.8651      3.1460      3.5593      4.0967      4.7770      5.6733      6.9580      8.9706      12.272      17.776    
  28.283      47.680      78.958      122.93      177.06      235.05      287.70      325.15      217.42      211.36    
  190.83      160.29      125.73      93.067      66.851      49.385      40.470      37.767      38.113      39.955    
  42.242      44.002      44.418      43.007      39.789      35.227      29.957      24.544      19.485      15.110    
  11.557      8.8019      6.7363      5.2311      4.1771      3.4904      3.1040      2.9630      3.0253      3.2601    
  3.6447      4.1637      4.8169      5.6375      6.7278      8.3095      10.763      14.620      21.010      32.588    
  51.656      78.958      112.96      149.66      183.22      207.41      128.13      125.34      114.28      97.577    
  78.853      61.826      49.385      42.880      41.831      44.315      48.901      54.890      61.222      66.312    
  68.604      67.166      62.036      54.180      45.083      36.151      28.154      21.323      15.869      11.746    
  8.7439      6.6098      5.1285      4.1440      3.5499      3.2692      3.2408      3.4166      3.7617      4.2512    
  4.8691      5.6170      6.5407      7.7649      9.5222      12.152      16.064      22.308      32.588      47.680    
  66.882      87.935      107.45      121.79      70.206      69.407      64.549      57.127      49.261      43.152    
  40.470      41.831      46.656      54.359      65.109      78.227      91.654      102.53      108.16      106.91    
  98.792      85.399      69.422      53.714      40.314      29.796      21.629      15.566      11.265      8.2918    
  6.2675      4.9219      4.0810      3.6314      3.4891      3.5873      3.8764      4.3201      4.8898      5.5658    
  6.3524      7.3015      8.5343      10.246      12.677      16.064      21.010      28.283      37.805      48.531    
  58.719      66.444      37.155      37.532      36.438      34.730      33.609      34.318      37.767      44.315    
  54.359      69.090      89.040      112.59      136.14      155.15      165.51      164.75      152.75      131.80    
  105.99      80.023      57.718      40.871      28.929      20.310      14.309      10.261      7.5687      5.7976    
  4.6741      4.0300      3.7522      3.7549      3.9716      4.3522      4.8584      5.4583      6.1299      6.8756    
  7.7403      8.8194      10.246      12.152      14.620      17.776      21.843      26.558      31.220      34.975    
  20.911      21.965      22.923      24.286      26.741      31.046      38.113      48.901      65.109      89.040    
  120.74      157.20      192.99      221.68      237.69      237.67      221.34      191.64      154.06      115.26    
  81.168      55.224      37.597      25.844      17.789      12.457      8.9835      6.7330      5.3009      4.4460    
  4.0193      3.9150      4.0479      4.3518      4.7799      5.2948      5.8613      6.4523      7.0671      7.7403    
  8.5343      9.5222      10.763      12.272      13.994      15.863      17.774      19.514      13.708      15.081    
  16.897      19.532      23.602      30.024      39.955      54.890      78.227      112.59      157.20      207.48    
  256.04      294.69      316.47      317.29      296.72      258.22      208.52      156.10      108.95      72.323    
  47.440      31.788      21.493      14.755      10.437      7.6801      5.9297      4.8592      4.2787      4.0616    
  4.1039      4.3221      4.6609      5.0820      5.5453      6.0098      6.4523      6.8756      7.3015      7.7649    
  8.3095      8.9706      9.7516      10.624      11.561      12.571      9.9853      11.497      13.690      16.984    
  22.081      30.046      42.242      61.222      91.654      136.14      192.99      256.04      316.18      363.69    
  390.54      392.06      367.77      321.59      261.17      196.42      137.04      89.973      57.571      37.568    
  25.077      16.970      11.829      8.5825      6.5272      5.2499      4.5187      4.1875      4.1356      4.2634    
  4.5076      4.8304      5.1914      5.5453      5.8613      6.1299      6.3524      6.5407      6.7278      6.9580    
  7.2622      7.6590      8.1879      8.9279      7.9333      9.5083      11.888      15.537      21.243      30.201    
  44.002      66.312      102.53      155.15      221.68      294.69      363.69      417.83      448.36      450.27    
  423.16      371.31      303.01      229.05      160.32      104.98      66.357      42.518      28.125      18.878    
  13.044      9.3809      7.0641      5.6062      4.7391      4.3004      4.1566      4.1947      4.3449      4.5696    
  4.8304      5.0820      5.2948      5.4583      5.5658      5.6170      5.6375      5.6733      5.7652      5.9497    
  6.2951      6.9128      6.7246      8.3027      10.729      14.493      20.432      29.818      44.418      68.604    
  108.16      165.51      237.69      316.47      390.54      448.36      480.78      482.74      454.00      399.12    
  326.71      247.94      174.20      114.28      72.046      45.853      30.236      20.262      13.971      10.022    
  7.5185      5.9258      4.9523      4.4240      4.1982      4.1533      4.2146      4.3449      4.5076      4.6609    
  4.7799      4.8584      4.8898      4.8691      4.8169      4.7770      4.7897      4.8948      5.1683      5.7322    
  5.8918      7.4173      9.7769      13.456      19.287      28.540      43.007      67.166      106.91      164.75    
  237.67      317.29      392.06      450.27      482.74      484.53      455.60      400.67      328.35      249.71    
  176.00      115.95      73.463      46.987      31.131      20.967      14.530      10.471      7.8801      6.2146    
  5.1755      4.5834      4.2909      4.1730      4.1533      4.1947      4.2634      4.3221      4.3518      4.3522    
  4.3201      4.2512      4.1637      4.0967      4.0856      4.1661      4.4114      4.9415      5.1975      6.6212    
  8.8262      12.261      17.697      26.325      39.789      62.036      98.792      152.75      221.34      296.72    
  367.77      423.16      454.00      455.60      428.09      376.14      308.05      234.36      165.60      109.83    
  70.449      45.795      30.728      20.944      14.699      10.722      8.1584      6.4927      5.4367      4.8116    
  4.4705      4.2909      4.1982      4.1566      4.1356      4.1039      4.0479      3.9716      3.8764      3.7617    
  3.6447      3.5593      3.5348      3.6013      3.8243      4.3141      4.5553      5.8390      7.8279      10.909    
  15.747      23.383      35.227      54.180      85.399      131.80      191.64      258.22      321.59      371.31    
  399.12      400.67      376.14      329.91      269.72      205.11      145.43      97.504      63.882      42.651    
  29.168      20.267      14.521      10.815      8.3970      6.8127      5.7973      5.1778      4.8116      4.5834    
  4.4240      4.3004      4.1875      4.0616      3.9150      3.7549      3.5873      3.4166      3.2601      3.1460    
  3.0979      3.1408      3.3306      3.7638      3.9706      5.0895      6.8255      9.4906      13.618      20.052    
  29.957      45.083      69.422      105.99      154.06      208.52      261.17      303.01      326.71      328.35    
  308.05      269.72      220.14      167.54      119.66      81.746      55.306      38.222      26.774      19.119    
  14.112      10.838      8.6835      7.2697      6.3627      5.7973      5.4367      5.1755      4.9523      4.7391    
  4.5187      4.2787      4.0193      3.7522      3.4891      3.2408      3.0253      2.8651      2.7781      2.7838    
  2.9277      3.2898      3.4657      4.4063      5.8730      8.1018      11.490      16.672      24.544      36.151    
  53.714      80.023      115.26      156.10      196.42      229.05      247.94      249.71      234.36      205.11    
  167.54      128.24      93.050      65.568      46.311      33.171      23.970      17.755      13.640      10.927    
  9.1453      7.9945      7.2697      6.8127      6.4927      6.2146      5.9258      5.6062      5.2499      4.8592    
  4.4460      4.0300      3.6314      3.2692      2.9630      2.7311      2.5852      2.5390      2.6254      2.9064    
  3.0375      3.7964      4.9944      6.8014      9.4929      13.510      19.485      28.154      40.314      57.718    
  81.168      108.95      137.04      160.32      174.20      176.00      165.60      145.43      119.66      93.050    
  69.562      51.260      37.942      28.142      21.185      16.448      13.299      11.243      9.9375      9.1453    
  8.6835      8.3970      8.1584      7.8801      7.5185      7.0641      6.5272      5.9297      5.3009      4.6741    
  4.0810      3.5499      3.1040      2.7591      2.5225      2.4011      2.4145      2.6051      2.6818      3.2628    
  4.2062      5.6292      7.7116      10.736      15.110      21.323      29.796      40.871      55.224      72.323    
  89.973      104.98      114.28      115.95      109.83      97.504      81.746      65.568      51.260      39.716    
  30.581      23.675      18.766      15.438      13.279      11.962      11.243      10.927      10.838      10.815    
  10.722      10.471      10.022      9.3809      8.5825      7.6801      6.7330      5.7976      4.9219      4.1440    
  3.4904      2.9754      2.6027      2.3721      2.2900      2.3787      2.4173      2.8289      3.5387      4.6250    
  6.1996      8.4304      11.557      15.869      21.629      28.929      37.597      47.440      57.571      66.357    
  72.046      73.463      70.449      63.882      55.306      46.311      37.942      30.581      24.590      20.087    
  16.938      14.909      13.757      13.279      13.299      13.640      14.112      14.521      14.699      14.530    
  13.971      13.044      11.829      10.437      8.9835      7.5687      6.2675      5.1285      4.1771      3.4217    
  2.8585      2.4780      2.2726      2.2454      2.2631      2.5154      3.0158      3.8133      4.9754      6.5957    
  8.8019      11.746      15.566      20.310      25.844      31.788      37.568      42.518      45.853      46.987    
  45.795      42.651      38.222      33.171      28.142      23.675      20.087      17.480      15.817      14.997    
  14.909      15.438      16.448      17.755      19.119      20.267      20.944      20.967      20.262      18.878    
  16.970      14.755      12.457      10.261      8.2918      6.6098      5.2311      4.1441      3.3252      2.7475    
  2.3864      2.2256      2.2146      2.3175      2.6349      3.1914      4.0251      5.1861      6.7363      8.7439    
  11.265      14.309      17.789      21.493      25.077      28.125      30.236      31.131      30.728      29.168    
  26.774      23.970      21.185      18.766      16.938      15.817      15.441      15.817      16.938      18.766    
  21.185      23.970      26.774      29.168      30.728      31.131      30.236      28.125      25.077      21.493    
  17.789      14.309      11.265      8.7439      6.7363      5.1861      4.0251      3.1914      2.6349      2.3175    
  2.2631      2.2256      2.3864      2.7475      3.3252      4.1441      5.2311      6.6098      8.2918      10.261    
  12.457      14.755      16.970      18.878      20.262      20.967      20.944      20.267      19.119      17.755    
  16.448      15.438      14.909      14.997      15.817      17.480      20.087      23.675      28.142      33.171    
  38.222      42.651      45.795      46.987      45.853      42.518      37.568      31.788      25.844      20.310    
  15.566      11.746      8.8019      6.5957      4.9754      3.8133      3.0158      2.5154      2.4173      2.2454    
  2.2726      2.4780      2.8585      3.4217      4.1771      5.1285      6.2675      7.5687      8.9835      10.437    
  11.829      13.044      13.971      14.530      14.699      14.521      14.112      13.640      13.299      13.279    
  13.757      14.909      16.938      20.087      24.590      30.581      37.942      46.311      55.306      63.882    
  70.449      73.463      72.046      66.357      57.571      47.440      37.597      28.929      21.629      15.869    
  11.557      8.4304      6.1996      4.6250      3.5387      2.8289      2.6818      2.3787      2.2900      2.3721    
  2.6027      2.9754      3.4904      4.1440      4.9219      5.7976      6.7330      7.6801      8.5825      9.3809    
  10.022      10.471      10.722      10.815      10.838      10.927      11.243      11.962      13.279      15.438    
  18.766      23.675      30.581      39.716      51.260      65.568      81.746      97.504      109.83      115.95    
  114.28      104.98      89.973      72.323      55.224      40.871      29.796      21.323      15.110      10.736    
  7.7116      5.6292      4.2062      3.2628      3.0375      2.6051      2.4145      2.4011      2.5225      2.7591    
  3.1040      3.5499      4.0810      4.6741      5.3009      5.9297      6.5272      7.0641      7.5185      7.8801    
  8.1584      8.3970      8.6835      9.1453      9.9375      11.243      13.299      16.448      21.185      28.142    
  37.942      51.260      69.562      93.050      119.66      145.43      165.60      176.00      174.20      160.32    
  137.04      108.95      81.168      57.718      40.314      28.154      19.485      13.510      9.4929      6.8014    
  4.9944      3.7964      3.4657      2.9064      2.6254      2.5390      2.5852      2.7311      2.9630      3.2692    
  3.6314      4.0300      4.4460      4.8592      5.2499      5.6062      5.9258      6.2146      6.4927      6.8127    
  7.2697      7.9945      9.1453      10.927      13.640      17.755      23.970      33.171      46.311      65.568    
  93.050      128.24      167.54      205.11      234.36      249.71      247.94      229.05      196.42      156.10    
  115.26      80.023      53.714      36.151      24.544      16.672      11.490      8.1018      5.8730      4.4063    
  3.9706      3.2898      2.9277      2.7838      2.7781      2.8651      3.0253      3.2408      3.4891      3.7522    
  4.0193      4.2787      4.5187      4.7391      4.9523      5.1755      5.4367      5.7973      6.3627      7.2697    
  8.6835      10.838      14.112      19.119      26.774      38.222      55.306      81.746      119.66      167.54    
  220.14      269.72      308.05      328.35      326.71      303.01      261.17      208.52      154.06      105.99    
  69.422      45.083      29.957      20.052      13.618      9.4906      6.8255      5.0895      4.5553      3.7638    
  3.3306      3.1408      3.0979      3.1460      3.2601      3.4166      3.5873      3.7549      3.9150      4.0616    
  4.1875      4.3004      4.4240      4.5834      4.8116      5.1778      5.7973      6.8127      8.3970      10.815    
  14.521      20.267      29.168      42.651      63.882      97.504      145.43      205.11      269.72      329.91    
  376.14      400.67      399.12      371.31      321.59      258.22      191.64      131.80      85.399      54.180    
  35.227      23.383      15.747      10.909      7.8279      5.8390      5.1975      4.3141      3.8243      3.6013    
  3.5348      3.5593      3.6447      3.7617      3.8764      3.9716      4.0479      4.1039      4.1356      4.1566    
  4.1982      4.2909      4.4705      4.8116      5.4367      6.4927      8.1584      10.722      14.699      20.944    
  30.728      45.795      70.449      109.83      165.60      234.36      308.05      376.14      428.09      455.60    
  454.00      423.16      367.77      296.72      221.34      152.75      98.792      62.036      39.789      26.325    
  17.697      12.261      8.8262      6.6212      5.8918      4.9415      4.4114      4.1661      4.0856      4.0967    
  4.1637      4.2512      4.3201      4.3522      4.3518      4.3221      4.2634      4.1947      4.1533      4.1730    
  4.2909      4.5834      5.1755      6.2146      7.8801      10.471      14.530      20.967      31.131      46.987    
  73.463      115.95      176.00      249.71      328.35      400.67      455.60      484.53      482.74      450.27    
  392.06      317.29      237.67      164.75      106.91      67.166      43.007      28.540      19.287      13.456    
  9.7769      7.4173      6.7246      5.7322      5.1683      4.8948      4.7897      4.7770      4.8169      4.8691    
  4.8898      4.8584      4.7799      4.6609      4.5076      4.3449      4.2146      4.1533      4.1982      4.4240    
  4.9523      5.9258      7.5185      10.022      13.971      20.262      30.236      45.853      72.046      114.28    
  174.20      247.94      326.71      399.12      454.00      482.74      480.78      448.36      390.54      316.47    
  237.69      165.51      108.16      68.604      44.418      29.818      20.432      14.493      10.729      8.3027    
  7.9333      6.9128      6.2951      5.9497      5.7652      5.6733      5.6375      5.6170      5.5658      5.4583    
  5.2948      5.0820      4.8304      4.5696      4.3449      4.1947      4.1566      4.3004      4.7391      5.6062    
  7.0641      9.3809      13.044      18.878      28.125      42.518      66.357      104.98      160.32      229.05    
  303.01      371.31      423.16      450.27      448.36      417.83      363.69      294.69      221.68      155.15    
  102.53      66.312      44.002      30.201      21.243      15.537      11.888      9.5083      9.9853      8.9279    
  8.1879      7.6590      7.2622      6.9580      6.7278      6.5407      6.3524      6.1299      5.8613      5.5453    
  5.1914      4.8304      4.5076      4.2634      4.1356      4.1875      4.5187      5.2499      6.5272      8.5825    
  11.829      16.970      25.077      37.568      57.571      89.973      137.04      196.42      261.17      321.59    
  367.77      392.06      390.54      363.69      316.18      256.04      192.99      136.14      91.654      61.222    
  42.242      30.046      22.081      16.984      13.690      11.497      13.708      12.571      11.561      10.624    
  9.7516      8.9706      8.3095      7.7649      7.3015      6.8756      6.4523      6.0098      5.5453      5.0820    
  4.6609      4.3221      4.1039      4.0616      4.2787      4.8592      5.9297      7.6801      10.437      14.755    
  21.493      31.788      47.440      72.323      108.95      156.10      208.52      258.22      296.72      317.29    
  316.47      294.69      256.04      207.48      157.20      112.59      78.227      54.890      39.955      30.024    
  23.602      19.532      16.897      15.081      20.911      19.514      17.774      15.863      13.994      12.272    
  10.763      9.5222      8.5343      7.7403      7.0671      6.4523      5.8613      5.2948      4.7799      4.3518    
  4.0479      3.9150      4.0193      4.4460      5.3009      6.7330      8.9835      12.457      17.789      25.844    
  37.597      55.224      81.168      115.26      154.06      191.64      221.34      237.67      237.69      221.68    
  192.99      157.20      120.74      89.040      65.109      48.901      38.113      31.046      26.741      24.286    
  22.923      21.965      37.155      34.975      31.220      26.558      21.843      17.776      14.620      12.152    
  10.246      8.8194      7.7403      6.8756      6.1299      5.4583      4.8584      4.3522      3.9716      3.7549    
  3.7522      4.0300      4.6741      5.7976      7.5687      10.261      14.309      20.310      28.929      40.871    
  57.718      80.023      105.99      131.80      152.75      164.75      165.51      155.15      136.14      112.59    
  89.040      69.090      54.359      44.315      37.767      34.318      33.609      34.730      36.438      37.532    
  70.206      66.444      58.719      48.531      37.805      28.283      21.010      16.064      12.677      10.246    
  8.5343      7.3015      6.3524      5.5658      4.8898      4.3201      3.8764      3.5873      3.4891      3.6314    
  4.0810      4.9219      6.2675      8.2918      11.265      15.566      21.629      29.796      40.314      53.714    
  69.422      85.399      98.792      106.91      108.16      102.53      91.654      78.227      65.109      54.359    
  46.656      41.831      40.470      43.152      49.261      57.127      64.549      69.407      128.13      121.79    
  107.45      87.935      66.882      47.680      32.588      22.308      16.064      12.152      9.5222      7.7649    
  6.5407      5.6170      4.8691      4.2512      3.7617      3.4166      3.2408      3.2692      3.5499      4.1440    
  5.1285      6.6098      8.7439      11.746      15.869      21.323      28.154      36.151      45.083      54.180    
  62.036      67.166      68.604      66.312      61.222      54.890      48.901      44.315      41.831      42.880    
  49.385      61.826      78.853      97.577      114.28      125.34      217.42      207.41      183.22      149.66    
  112.96      78.958      51.656      32.588      21.010      14.620      10.763      8.3095      6.7278      5.6375    
  4.8169      4.1637      3.6447      3.2601      3.0253      2.9630      3.1040      3.4904      4.1771      5.2311    
  6.7363      8.8019      11.557      15.110      19.485      24.544      29.957      35.227      39.789      43.007    
  44.418      44.002      42.242      39.955      38.113      37.767      40.470      49.385      66.851      93.067    
  125.73      160.29      190.83      211.36      339.85      325.15      287.70      235.05      177.06      122.93    
  78.958      47.680      28.283      17.776      12.272      8.9706      6.9580      5.6733      4.7770      4.0967    
  3.5593      3.1460      2.8651      2.7311      2.7591      2.9754      3.4217      4.1441      5.1861      6.5957    
  8.4304      10.736      13.510      16.672      20.052      23.383      26.325      28.540      29.818      30.201    
  30.046      30.024      31.046      34.318      43.152      61.826      93.067      136.89      189.98      245.72    
  295.17      328.96      488.90      468.73      415.24      339.40      255.56      177.06      112.96      66.882    
  37.805      21.843      13.994      9.7516      7.2622      5.7652      4.7897      4.0856      3.5348      3.0979    
  2.7781      2.5852      2.5225      2.6027      2.8585      3.3252      4.0251      4.9754      6.1996      7.7116    
  9.4929      11.490      13.618      15.747      17.697      19.287      20.432      21.243      22.081      23.602    
  26.741      33.609      49.261      78.853      125.73      189.98      267.32      348.73      421.44      471.74    
  647.73      621.83      551.29      450.75      339.40      235.05      149.66      87.935      48.531      26.558    
  15.863      10.624      7.6590      5.9497      4.8948      4.1661      3.6013      3.1408      2.7838      2.5390    
  2.4011      2.3721      2.4780      2.7475      3.1914      3.8133      4.6250      5.6292      6.8014      8.1018    
  9.4906      10.909      12.261      13.456      14.493      15.537      16.984      19.532      24.286      34.730    
  57.127      97.577      160.29      245.72      348.73      457.64      555.47      623.70      791.07      759.98    
  674.04      551.29      415.24      287.70      183.22      107.45      58.719      31.220      17.774      11.561    
  8.1879      6.2951      5.1683      4.4114      3.8243      3.3306      2.9277      2.6254      2.4145      2.2900    
  2.2726      2.3864      2.6349      3.0158      3.5387      4.2062      4.9944      5.8730      6.8255      7.8279    
  8.8262      9.7769      10.729      11.888      13.690      16.897      22.923      36.438      64.549      114.28    
  190.83      295.17      421.44      555.47      676.25      760.81      891.44      856.64      759.98      621.83    
  468.73      325.15      207.41      121.79      66.444      34.975      19.514      12.571      8.9279      6.9128    
  5.7322      4.9415      4.3141      3.7638      3.2898      2.9064      2.6051      2.3787      2.2454      2.2256    
  2.3175      2.5154      2.8289      3.2628      3.7964      4.4063      5.0895      5.8390      6.6212      7.4173    
  8.3027      9.5083      11.497      15.081      21.965      37.532      69.407      125.34      211.36      328.96    
  471.74      623.70      760.81      856.87      893.66      858.88      762.26      624.26      471.33      327.77    
  209.79      123.72      67.904      36.115      20.527      13.573      9.9349      7.9184      6.7199      5.8862    
  5.1883      4.5435      3.9582      3.4535      3.0261      2.6713      2.4077      2.2538      2.2052      2.2538    
  2.4077      2.6713      3.0261      3.4535      3.9582      4.5435      5.1883      5.8862      6.7199      7.9184    
  9.9349      13.573      20.527      36.115      67.904      123.72      209.79      327.77      471.33      624.26    
  762.26      858.88      858.88      825.38      732.74      600.65      454.35      316.87      203.65      120.83    
  67.023      36.420      21.512      14.876      11.383      9.4370      8.2479      7.3682      6.5748      5.7963    
  5.0518      4.3738      3.7689      3.2402      2.8108      2.5011      2.3067      2.2181      2.2409      2.3764    
  2.6049      2.9091      3.2965      3.7763      4.3350      4.9728      5.7719      6.9507      8.9406      12.512    
  19.236      34.098      64.408      117.80      200.43      314.00      452.37      599.80      732.71      825.60    
  762.26      732.74      651.04      534.61      405.54      284.02      183.64      110.03      62.275      35.348    
  22.434      16.626      13.508      11.749      10.610      9.6696      8.7285      7.7416      6.7517      5.8114    
  4.9440      4.1662      3.5080      2.9933      2.6198      2.3782      2.2703      2.2926      2.4221      2.6392    
  2.9496      3.3633      3.8714      4.4757      5.2488      6.3836      8.2640      11.584      17.629      30.574    