       N       E                     dE             d eps       ncg     rms          rms(c)
DAV:   1    -0.485100058790E+02   -0.48510E+02   -0.35326E+02  5724   0.219E+02    0.283E+01
DAV:   2    -0.535547486832E+02   -0.50447E+01   -0.52473E+01  4656   0.509E+01    0.330E+01
DAV:   3    -0.539351064629E+02   -0.38036E+00   -0.20316E+00  6104   0.114E+01    0.414E+01
DAV:   4    -0.536288643085E+02    0.30624E+00   -0.13370E+00  5496   0.130E+01    0.235E+01
DAV:   5    -0.536087999221E+02    0.20064E-01   -0.26234E-01  5228   0.397E+00    0.145E+00
DAV:   6    -0.536101029580E+02   -0.13030E-02   -0.16901E-02  5504   0.101E+00    0.268E+00
DAV:   7    -0.536095628641E+02    0.54009E-03   -0.32986E-03  5396   0.577E-01    0.810E-01
DAV:   8    -0.536094339104E+02    0.12895E-03   -0.55708E-04  4800   0.213E-01    0.103E-01
DAV:   9    -0.536094040912E+02    0.29819E-04   -0.78163E-05  4636   0.711E-02    0.611E-02
DAV:  10    -0.536093917577E+02    0.12333E-04   -0.10422E-04  5404   0.780E-02    0.311E-02
DAV:  11    -0.536093923180E+02   -0.56031E-06   -0.43725E-06  2776   0.182E-02
   1 F= -.53609392E+02 E0= -.53609392E+02  d E =-.317902-232
