<?xml version="1.0" encoding="ISO-8859-1"?>
<modeling>
 <generator>
  <i name="program" type="string">vasp </i>
  <i name="version" type="string">6.2.0  </i>
  <i name="subversion" type="string">18Jan21 (build Oct 14 2021 17:49:53) complex                          parallel </i>
  <i name="platform" type="string">LinuxIFC </i>
  <i name="date" type="string">2022 04 02 </i>
  <i name="time" type="string">10:37:05 </i>
 </generator>
 <incar>
  <i type="string" name="SYSTEM">TiO2</i>
  <i type="int" name="ISTART">     1</i>
  <i type="int" name="ICHARG">     0</i>
  <i name="EDIFF">      0.00001000</i>
  <i name="ENCUT">    460.00000000</i>
  <i type="int" name="ISMEAR">     0</i>
  <i name="SIGMA">      0.01000000</i>
 </incar>
 <primitive_cell>
  <structure name="primitive_cell" >
   <crystal>
    <varray name="basis" >
     <v>       4.58400000       0.00000000       0.00000000 </v>
     <v>       0.00000000       4.58400000       0.00000000 </v>
     <v>       0.00000000       0.00000000       2.95300000 </v>
    </varray>
    <i name="volume">     62.05155437 </i>
    <varray name="rec_basis" >
     <v>       0.21815009       0.00000000       0.00000000 </v>
     <v>       0.00000000       0.21815009       0.00000000 </v>
     <v>       0.00000000       0.00000000       0.33863867 </v>
    </varray>
   </crystal>
   <varray name="positions" >
    <v>       0.00000000       0.00000000       0.00000000 </v>
    <v>       0.50000000       0.50000000       0.50000000 </v>
    <v>       0.19620933       0.80379067       0.50000000 </v>
    <v>       0.80379067       0.19620933       0.50000000 </v>
    <v>       0.30379067       0.30379067       0.00000000 </v>
    <v>       0.69620933       0.69620933       0.00000000 </v>
   </varray>
  </structure>
  <varray name="primitive_index" >
   <v type="int" >        1 </v>
   <v type="int" >        2 </v>
   <v type="int" >        3 </v>
   <v type="int" >        4 </v>
   <v type="int" >        5 </v>
   <v type="int" >        6 </v>
  </varray>
 </primitive_cell>
 <kpoints>
  <generation param="Gamma">
   <v type="int" name="divisions">       8        8        8 </v>
   <v name="usershift">      0.00000000       0.00000000       0.00000000 </v>
   <v name="genvec1">      0.12500000       0.00000000       0.00000000 </v>
   <v name="genvec2">      0.00000000       0.12500000       0.00000000 </v>
   <v name="genvec3">      0.00000000       0.00000000       0.12500000 </v>
   <v name="shift">      0.00000000       0.00000000       0.00000000 </v>
  </generation>
  <varray name="kpointlist" >
   <v>       0.00000000       0.00000000       0.00000000 </v>
   <v>       0.12500000       0.00000000       0.00000000 </v>
   <v>       0.25000000       0.00000000       0.00000000 </v>
   <v>       0.37500000       0.00000000       0.00000000 </v>
   <v>       0.50000000       0.00000000       0.00000000 </v>
   <v>       0.12500000       0.12500000       0.00000000 </v>
   <v>       0.25000000       0.12500000       0.00000000 </v>
   <v>       0.37500000       0.12500000       0.00000000 </v>
   <v>       0.50000000       0.12500000       0.00000000 </v>
   <v>       0.25000000       0.25000000       0.00000000 </v>
   <v>       0.37500000       0.25000000       0.00000000 </v>
   <v>       0.50000000       0.25000000       0.00000000 </v>
   <v>       0.37500000       0.37500000       0.00000000 </v>
   <v>       0.50000000       0.37500000       0.00000000 </v>
   <v>       0.50000000       0.50000000       0.00000000 </v>
   <v>       0.00000000       0.00000000       0.12500000 </v>
   <v>       0.12500000       0.00000000       0.12500000 </v>
   <v>       0.25000000       0.00000000       0.12500000 </v>
   <v>       0.37500000       0.00000000       0.12500000 </v>
   <v>       0.50000000       0.00000000       0.12500000 </v>
   <v>       0.12500000       0.12500000       0.12500000 </v>
   <v>       0.25000000       0.12500000       0.12500000 </v>
   <v>       0.37500000       0.12500000       0.12500000 </v>
   <v>       0.50000000       0.12500000       0.12500000 </v>
   <v>       0.25000000       0.25000000       0.12500000 </v>
   <v>       0.37500000       0.25000000       0.12500000 </v>
   <v>       0.50000000       0.25000000       0.12500000 </v>
   <v>       0.37500000       0.37500000       0.12500000 </v>
   <v>       0.50000000       0.37500000       0.12500000 </v>
   <v>       0.50000000       0.50000000       0.12500000 </v>
   <v>       0.00000000       0.00000000       0.25000000 </v>
   <v>       0.12500000       0.00000000       0.25000000 </v>
   <v>       0.25000000       0.00000000       0.25000000 </v>
   <v>       0.37500000       0.00000000       0.25000000 </v>
   <v>       0.50000000       0.00000000       0.25000000 </v>
   <v>       0.12500000       0.12500000       0.25000000 </v>
   <v>       0.25000000       0.12500000       0.25000000 </v>
   <v>       0.37500000       0.12500000       0.25000000 </v>
   <v>       0.50000000       0.12500000       0.25000000 </v>
   <v>       0.25000000       0.25000000       0.25000000 </v>
   <v>       0.37500000       0.25000000       0.25000000 </v>
   <v>       0.50000000       0.25000000       0.25000000 </v>
   <v>       0.37500000       0.37500000       0.25000000 </v>
   <v>       0.50000000       0.37500000       0.25000000 </v>
   <v>       0.50000000       0.50000000       0.25000000 </v>
   <v>       0.00000000       0.00000000       0.37500000 </v>
   <v>       0.12500000       0.00000000       0.37500000 </v>
   <v>       0.25000000       0.00000000       0.37500000 </v>
   <v>       0.37500000       0.00000000       0.37500000 </v>
   <v>       0.50000000       0.00000000       0.37500000 </v>
   <v>       0.12500000       0.12500000       0.37500000 </v>
   <v>       0.25000000       0.12500000       0.37500000 </v>
   <v>       0.37500000       0.12500000       0.37500000 </v>
   <v>       0.50000000       0.12500000       0.37500000 </v>
   <v>       0.25000000       0.25000000       0.37500000 </v>
   <v>       0.37500000       0.25000000       0.37500000 </v>
   <v>       0.50000000       0.25000000       0.37500000 </v>
   <v>       0.37500000       0.37500000       0.37500000 </v>
   <v>       0.50000000       0.37500000       0.37500000 </v>
   <v>       0.50000000       0.50000000       0.37500000 </v>
   <v>       0.00000000       0.00000000       0.50000000 </v>
   <v>       0.12500000       0.00000000       0.50000000 </v>
   <v>       0.25000000       0.00000000       0.50000000 </v>
   <v>       0.37500000       0.00000000       0.50000000 </v>
   <v>       0.50000000       0.00000000       0.50000000 </v>
   <v>       0.12500000       0.12500000       0.50000000 </v>
   <v>       0.25000000       0.12500000       0.50000000 </v>
   <v>       0.37500000       0.12500000       0.50000000 </v>
   <v>       0.50000000       0.12500000       0.50000000 </v>
   <v>       0.25000000       0.25000000       0.50000000 </v>
   <v>       0.37500000       0.25000000       0.50000000 </v>
   <v>       0.50000000       0.25000000       0.50000000 </v>
   <v>       0.37500000       0.37500000       0.50000000 </v>
   <v>       0.50000000       0.37500000       0.50000000 </v>
   <v>       0.50000000       0.50000000       0.50000000 </v>
  </varray>
  <varray name="weights" >
   <v>       0.00195312 </v>
   <v>       0.00781250 </v>
   <v>       0.00781250 </v>
   <v>       0.00781250 </v>
   <v>       0.00390625 </v>
   <v>       0.00781250 </v>
   <v>       0.01562500 </v>
   <v>       0.01562500 </v>
   <v>       0.00781250 </v>
   <v>       0.00781250 </v>
   <v>       0.01562500 </v>
   <v>       0.00781250 </v>
   <v>       0.00781250 </v>
   <v>       0.00781250 </v>
   <v>       0.00195312 </v>
   <v>       0.00390625 </v>
   <v>       0.01562500 </v>
   <v>       0.01562500 </v>
   <v>       0.01562500 </v>
   <v>       0.00781250 </v>
   <v>       0.01562500 </v>
   <v>       0.03125000 </v>
   <v>       0.03125000 </v>
   <v>       0.01562500 </v>
   <v>       0.01562500 </v>
   <v>       0.03125000 </v>
   <v>       0.01562500 </v>
   <v>       0.01562500 </v>
   <v>       0.01562500 </v>
   <v>       0.00390625 </v>
   <v>       0.00390625 </v>
   <v>       0.01562500 </v>
   <v>       0.01562500 </v>
   <v>       0.01562500 </v>
   <v>       0.00781250 </v>
   <v>       0.01562500 </v>
   <v>       0.03125000 </v>
   <v>       0.03125000 </v>
   <v>       0.01562500 </v>
   <v>       0.01562500 </v>
   <v>       0.03125000 </v>
   <v>       0.01562500 </v>
   <v>       0.01562500 </v>
   <v>       0.01562500 </v>
   <v>       0.00390625 </v>
   <v>       0.00390625 </v>
   <v>       0.01562500 </v>
   <v>       0.01562500 </v>
   <v>       0.01562500 </v>
   <v>       0.00781250 </v>
   <v>       0.01562500 </v>
   <v>       0.03125000 </v>
   <v>       0.03125000 </v>
   <v>       0.01562500 </v>
   <v>       0.01562500 </v>
   <v>       0.03125000 </v>
   <v>       0.01562500 </v>
   <v>       0.01562500 </v>
   <v>       0.01562500 </v>
   <v>       0.00390625 </v>
   <v>       0.00195312 </v>
   <v>       0.00781250 </v>
   <v>       0.00781250 </v>
   <v>       0.00781250 </v>
   <v>       0.00390625 </v>
   <v>       0.00781250 </v>
   <v>       0.01562500 </v>
   <v>       0.01562500 </v>
   <v>       0.00781250 </v>
   <v>       0.00781250 </v>
   <v>       0.01562500 </v>
   <v>       0.00781250 </v>
   <v>       0.00781250 </v>
   <v>       0.00781250 </v>
   <v>       0.00195312 </v>
  </varray>
 </kpoints>
 <parameters>
  <separator name="general" >
   <i type="string" name="SYSTEM">TiO2</i>
   <i type="logical" name="LCOMPAT"> F  </i>
  </separator>
  <separator name="electronic" >
   <i type="string" name="PREC">normal</i>
   <i name="ENMAX">    460.00000000</i>
   <i name="ENAUG">    482.84800000</i>
   <i name="EDIFF">      0.00001000</i>
   <i type="int" name="IALGO">    38</i>
   <i type="int" name="IWAVPR">    10</i>
   <i type="int" name="NBANDS">    28</i>
   <i type="int" name="NBANDSLOW">    -1</i>
   <i type="int" name="NBANDSHIGH">    -1</i>
   <i name="NELECT">     48.00000000</i>
   <i type="int" name="TURBO">     0</i>
   <i type="int" name="IRESTART">     0</i>
   <i type="int" name="NREBOOT">     0</i>
   <i type="int" name="NMIN">     0</i>
   <i name="EREF">      0.00000000</i>
   <separator name="electronic smearing" >
    <i type="int" name="ISMEAR">     0</i>
    <i name="SIGMA">      0.01000000</i>
    <i name="KSPACING">      0.50000000</i>
    <i type="logical" name="KGAMMA"> T  </i>
    <i type="logical" name="KBLOWUP"> T  </i>
   </separator>
   <separator name="electronic projectors" >
    <i type="logical" name="LREAL"> F  </i>
    <v name="ROPT">      0.00000000      0.00000000</v>
    <i type="int" name="LMAXPAW">  -100</i>
    <i type="int" name="LMAXMIX">     2</i>
    <i type="logical" name="NLSPLINE"> F  </i>
   </separator>
   <separator name="electronic startup" >
    <i type="int" name="ISTART">     1</i>
    <i type="int" name="ICHARG">     0</i>
    <i type="int" name="INIWAV">     1</i>
   </separator>
   <separator name="electronic spin" >
    <i type="int" name="ISPIN">     1</i>
    <i type="logical" name="LNONCOLLINEAR"> F  </i>
    <v name="MAGMOM">      1.00000000      1.00000000      1.00000000      1.00000000      1.00000000      1.00000000</v>
    <i name="NUPDOWN">     -1.00000000</i>
    <i type="logical" name="LSORBIT"> F  </i>
    <v name="SAXIS">      0.00000000      0.00000000      1.00000000</v>
    <i type="logical" name="LSPIRAL"> F  </i>
    <v name="QSPIRAL">      0.00000000      0.00000000      0.00000000</v>
    <i type="logical" name="LZEROZ"> F  </i>
   </separator>
   <separator name="electronic exchange-correlation" >
    <i type="logical" name="LASPH"> F  </i>
    <i type="logical" name="LMETAGGA"> F  </i>
   </separator>
   <separator name="electronic convergence" >
    <i type="int" name="NELM">    60</i>
    <i type="int" name="NELMDL">     0</i>
    <i type="int" name="NELMIN">     2</i>
    <i name="ENINI">    460.00000000</i>
    <separator name="electronic convergence detail" >
     <i type="logical" name="LDIAG"> T  </i>
     <i type="logical" name="LSUBROT"> F  </i>
     <i name="WEIMIN">      0.00000000</i>
     <i name="EBREAK">      0.00000009</i>
     <i name="DEPER">      0.30000000</i>
     <i type="int" name="NRMM">     4</i>
     <i name="TIME">      0.40000000</i>
    </separator>
   </separator>
   <separator name="electronic mixer" >
    <i name="AMIX">      0.40000000</i>
    <i name="BMIX">      1.00000000</i>
    <i name="AMIN">      0.10000000</i>
    <i name="AMIX_MAG">      1.60000000</i>
    <i name="BMIX_MAG">      1.00000000</i>
    <separator name="electronic mixer details" >
     <i type="int" name="IMIX">     4</i>
     <i type="logical" name="MIXFIRST"> F  </i>
     <i type="int" name="MAXMIX">   -45</i>
     <i name="WC">    100.00000000</i>
     <i type="int" name="INIMIX">     1</i>
     <i type="int" name="MIXPRE">     1</i>
     <i type="int" name="MREMOVE">     5</i>
    </separator>
   </separator>
   <separator name="electronic dipolcorrection" >
    <i type="logical" name="LDIPOL"> F  </i>
    <i type="logical" name="LMONO"> F  </i>
    <i type="int" name="IDIPOL">     0</i>
    <i name="EPSILON">      1.00000000</i>
    <v name="DIPOL">   -100.00000000   -100.00000000   -100.00000000</v>
    <i name="EFIELD">      0.00000000</i>
   </separator>
  </separator>
  <separator name="grids" >
   <i type="int" name="NGX">    24</i>
   <i type="int" name="NGY">    24</i>
   <i type="int" name="NGZ">    16</i>
   <i type="int" name="NGXF">    48</i>
   <i type="int" name="NGYF">    48</i>
   <i type="int" name="NGZF">    32</i>
   <i type="logical" name="ADDGRID"> F  </i>
  </separator>
  <separator name="ionic" >
   <i type="int" name="NSW">     0</i>
   <i type="int" name="IBRION">    -1</i>
   <i type="int" name="MDALGO">     0</i>
   <i type="int" name="ISIF">     2</i>
   <i name="PSTRESS">      0.00000000</i>
   <i name="EDIFFG">      0.00010000</i>
   <i type="int" name="NFREE">     0</i>
   <i name="POTIM">      0.50000000</i>
   <i name="SMASS">     -3.00000000</i>
   <i name="SCALEE">      1.00000000</i>
  </separator>
  <separator name="ionic md" >
   <i name="TEBEG">      0.00010000</i>
   <i name="TEEND">      0.00010000</i>
   <i type="int" name="NBLOCK">     1</i>
   <i type="int" name="KBLOCK">     1</i>
   <i type="int" name="NPACO">   256</i>
   <i name="APACO">     16.00000000</i>
  </separator>
  <separator name="symmetry" >
   <i type="int" name="ISYM">     2</i>
   <i name="SYMPREC">      0.00001000</i>
  </separator>
  <separator name="dos" >
   <i type="int" name="LORBIT">     0</i>
   <v name="RWIGS">     -1.00000000     -1.00000000</v>
   <i type="int" name="NEDOS">   301</i>
   <i name="EMIN">     10.00000000</i>
   <i name="EMAX">    -10.00000000</i>
   <i name="EFERMI">      0.00000000</i>
  </separator>
  <separator name="writing" >
   <i type="int" name="NWRITE">     2</i>
   <i type="logical" name="LWAVE"> T  </i>
   <i type="logical" name="LDOWNSAMPLE"> F  </i>
   <i type="logical" name="LCHARG"> T  </i>
   <i type="logical" name="LPARD"> F  </i>
   <i type="logical" name="LVTOT"> F  </i>
   <i type="logical" name="LVHAR"> F  </i>
   <i type="logical" name="LELF"> F  </i>
   <i type="logical" name="LOPTICS"> F  </i>
   <v name="STM">      0.00000000      0.00000000      0.00000000      0.00000000      0.00000000      0.00000000      0.00000000</v>
  </separator>
  <separator name="performance" >
   <i type="int" name="NPAR">     4</i>
   <i type="int" name="NSIM">     4</i>
   <i type="int" name="NBLK">    -1</i>
   <i type="logical" name="LPLANE"> T  </i>
   <i type="logical" name="LSCALAPACK"> T  </i>
   <i type="logical" name="LSCAAWARE"> F  </i>
   <i type="logical" name="LSCALU"> F  </i>
   <i type="logical" name="LASYNC"> F  </i>
   <i type="logical" name="LORBITALREAL"> F  </i>
  </separator>
  <separator name="miscellaneous" >
   <i type="int" name="IDIOT">     3</i>
   <i type="int" name="PHON_NSTRUCT">    -1</i>
   <i type="logical" name="LMUSIC"> F  </i>
   <v name="POMASS">     47.88000000     16.00000000</v>
   <v name="DARWINR">      0.00000000      0.00000000</v>
   <v name="DARWINV">      1.00000000      1.00000000</v>
   <i type="logical" name="LCORR"> T  </i>
  </separator>
  <i type="logical" name="GGA_COMPAT"> T  </i>
  <i type="logical" name="LBERRY"> F  </i>
  <i type="int" name="ICORELEVEL">     0</i>
  <i type="logical" name="LDAU"> F  </i>
  <i type="int" name="I_CONSTRAINED_M">     0</i>
  <separator name="electronic exchange-correlation" >
   <i type="string" name="GGA">--</i>
   <i type="int" name="VOSKOWN">     0</i>
   <i type="logical" name="LHFCALC"> F  </i>
   <i type="string" name="PRECFOCK"></i>
   <i type="logical" name="LSYMGRAD"> F  </i>
   <i type="logical" name="LHFONE"> F  </i>
   <i type="logical" name="LRHFCALC"> F  </i>
   <i type="logical" name="LTHOMAS"> F  </i>
   <i type="logical" name="LMODELHF"> F  </i>
   <i type="logical" name="LFOCKACE"> F  </i>
   <i name="ENCUT4O">     -1.00000000</i>
   <i type="int" name="EXXOEP">     0</i>
   <i type="int" name="FOURORBIT">     0</i>
   <i name="AEXX">      0.00000000</i>
   <i name="HFALPHA">      0.00000000</i>
   <i name="MCALPHA">      0.00000000</i>
   <i name="ALDAX">      1.00000000</i>
   <i name="AGGAX">      1.00000000</i>
   <i name="ALDAC">      1.00000000</i>
   <i name="AGGAC">      1.00000000</i>
   <i type="int" name="NKREDX">     1</i>
   <i type="int" name="NKREDY">     1</i>
   <i type="int" name="NKREDZ">     1</i>
   <i type="logical" name="SHIFTRED"> F  </i>
   <i type="logical" name="ODDONLY"> F  </i>
   <i type="logical" name="EVENONLY"> F  </i>
   <i type="int" name="LMAXFOCK">     0</i>
   <i type="int" name="NMAXFOCKAE">     0</i>
   <i type="logical" name="LFOCKAEDFT"> F  </i>
   <i name="HFSCREEN">      0.00000000</i>
   <i name="HFSCREENC">      0.00000000</i>
   <i type="int" name="NBANDSGWLOW">     0</i>
  </separator>
  <separator name="vdW DFT" >
   <i type="logical" name="LUSE_VDW"> F  </i>
   <i name="Zab_VDW">     -0.84910000</i>
   <i name="PARAM1">      0.12340000</i>
   <i name="PARAM2">      1.00000000</i>
   <i name="PARAM3">      0.00000000</i>
  </separator>
  <separator name="model GW" >
   <i type="int" name="MODEL_GW">     0</i>
   <i name="MODEL_EPS0">      6.20515544</i>
   <i name="MODEL_ALPHA">      1.00000000</i>
  </separator>
  <separator name="linear response parameters" >
   <i type="logical" name="LEPSILON"> F  </i>
   <i type="logical" name="LRPA"> F  </i>
   <i type="logical" name="LNABLA"> F  </i>
   <i type="logical" name="LVEL"> F  </i>
   <i type="int" name="KINTER">     0</i>
   <i name="CSHIFT">      0.10000000</i>
   <i name="OMEGAMAX">     -1.00000000</i>
   <i name="DEG_THRESHOLD">      0.00200000</i>
   <i name="RTIME">     -0.10000000</i>
   <i name="WPLASMAI">      0.00000000</i>
   <v name="DFIELD">      0.00000000      0.00000000      0.00000000</v>
   <v name="WPLASMA">      0.00000000      0.00000000      0.00000000      0.00000000      0.00000000      0.00000000      0.00000000      0.00000000      0.00000000</v>
  </separator>
  <separator name="orbital magnetization" >
   <i type="logical" name="NUCIND"> F  </i>
   <v name="MAGPOS">      0.00000000      0.00000000      0.00000000</v>
   <i type="logical" name="LNICSALL"> T  </i>
   <i type="logical" name="ORBITALMAG"> F  </i>
   <i type="logical" name="LMAGBLOCH"> F  </i>
   <i type="logical" name="LCHIMAG"> F  </i>
   <i type="logical" name="LGAUGE"> T  </i>
   <i type="int" name="MAGATOM">     0</i>
   <v name="MAGDIPOL">      0.00000000      0.00000000      0.00000000</v>
   <v name="AVECCONST">      0.00000000      0.00000000      0.00000000</v>
  </separator>
  <separator name="response functions" >
   <i type="logical" name="LFINITE_TEMPERATURE"> F  </i>
   <i type="logical" name="LADDER"> F  </i>
   <i type="logical" name="LRPAFORCE"> F  </i>
   <i type="logical" name="LFXC"> F  </i>
   <i type="logical" name="LHARTREE"> T  </i>
   <i type="int" name="IBSE">     0</i>
   <v type="int" name="KPOINT">    -1     0     0     0</v>
   <i type="logical" name="LTCTC"> F  </i>
   <i type="logical" name="LTCTE"> F  </i>
   <i type="logical" name="LTETE"> F  </i>
   <i type="logical" name="LTRIPLET"> F  </i>
   <i type="logical" name="LFXCEPS"> F  </i>
   <i type="logical" name="LFXHEG"> F  </i>
   <i type="int" name="NATURALO">     2</i>
   <i type="logical" name="LHOLEGF"> F  </i>
   <i type="logical" name="L2ORDER"> F  </i>
   <i type="logical" name="LDMP1"> F  </i>
   <i type="logical" name="LMP2LT"> F  </i>
   <i type="logical" name="LSMP2LT"> F  </i>
   <i type="logical" name="LGWLF"> F  </i>
   <i name="ENCUTGW">     -2.00000000</i>
   <i name="ENCUTGWSOFT">     -2.00000000</i>
   <i name="ENCUTLF">     -1.00000000</i>
   <i type="logical" name="LESF_SPLINES"> F  </i>
   <i type="int" name="LMAXMP2">    -1</i>
   <i name="SCISSOR">      0.00000000</i>
   <i type="int" name="NOMEGA">     0</i>
   <i type="int" name="NOMEGAR">     0</i>
   <i type="int" name="NBANDSGW">    -1</i>
   <i type="int" name="NBANDSO">    -1</i>
   <i type="int" name="NBANDSV">    -1</i>
   <i type="int" name="NELM">     1</i>
   <i type="int" name="NELMHF">     1</i>
   <i type="int" name="DIM">     3</i>
   <i type="int" name="IESPILON">     4</i>
   <i type="int" name="ANTIRES">     0</i>
   <i name="OMEGAMAX">    -30.00000000</i>
   <i name="OMEGAMIN">    -30.00000000</i>
   <i name="OMEGATL">   -200.00000000</i>
   <i type="int" name="OMEGAGRID">     0</i>
   <i name="CSHIFT">     -0.10000000</i>
   <i type="logical" name="LSELFENERGY"> F  </i>
   <i type="logical" name="LSPECTRAL"> F  </i>
   <i type="logical" name="LSPECTRALGW"> F  </i>
   <i type="logical" name="LSINGLES"> F  </i>
   <i type="logical" name="LFERMIGW"> F  </i>
   <i type="logical" name="ODDONLYGW"> F  </i>
   <i type="logical" name="EVENONLYGW"> F  </i>
   <i type="int" name="NKREDLFX">     1</i>
   <i type="int" name="NKREDLFY">     1</i>
   <i type="int" name="NKREDLFZ">     1</i>
   <i type="int" name="MAXMEM">  2800</i>
   <i type="int" name="TELESCOPE">     0</i>
   <i type="int" name="NTAUPAR">    -1</i>
   <i type="int" name="NOMEGAPAR">    -1</i>
   <i name="DAMP_NEWTON">      0.80000001</i>
   <i name="LAMBDA">      1.00000000</i>
  </separator>
  <separator name="External order field" >
   <i name="OFIELD_KAPPA">      0.00000000</i>
   <v name="OFIELD_K">      0.00000000      0.00000000      0.00000000</v>
   <i name="OFIELD_Q6_NEAR">      0.00000000</i>
   <i name="OFIELD_Q6_FAR">      0.00000000</i>
   <i name="OFIELD_A">      0.00000000</i>
  </separator>
 </parameters>
 <atominfo>
  <atoms>       6 </atoms>
  <types>       2 </types>
  <array name="atoms" >
   <dimension dim="1">ion</dimension>
   <field type="string">element</field>
   <field type="int">atomtype</field>
   <set>
    <rc><c>Ti</c><c>   1</c></rc>
    <rc><c>Ti</c><c>   1</c></rc>
    <rc><c>O </c><c>   2</c></rc>
    <rc><c>O </c><c>   2</c></rc>
    <rc><c>O </c><c>   2</c></rc>
    <rc><c>O </c><c>   2</c></rc>
   </set>
  </array>
  <array name="atomtypes" >
   <dimension dim="1">type</dimension>
   <field type="int">atomspertype</field>
   <field type="string">element</field>
   <field>mass</field>
   <field>valence</field>
   <field type="string">pseudopotential</field>
   <set>
    <rc><c>   2</c><c>Ti</c><c>     47.88000000</c><c>     12.00000000</c><c>  PAW_PBE Ti_sv 26Sep2005               </c></rc>
    <rc><c>   4</c><c>O </c><c>     16.00000000</c><c>      6.00000000</c><c> PAW_PBE O_s 07Sep2000                  </c></rc>
   </set>
  </array>
 </atominfo>
 <structure name="initialpos" >
  <crystal>
   <varray name="basis" >
    <v>       4.58400000       0.00000000       0.00000000 </v>
    <v>       0.00000000       4.58400000       0.00000000 </v>
    <v>       0.00000000       0.00000000       2.95300000 </v>
   </varray>
   <i name="volume">     62.05155437 </i>
   <varray name="rec_basis" >
    <v>       0.21815009       0.00000000       0.00000000 </v>
    <v>       0.00000000       0.21815009       0.00000000 </v>
    <v>       0.00000000       0.00000000       0.33863867 </v>
   </varray>
  </crystal>
  <varray name="positions" >
   <v>       0.00000000       0.00000000       0.00000000 </v>
   <v>       0.50000000       0.50000000       0.50000000 </v>
   <v>       0.19620933       0.80379067       0.50000000 </v>
   <v>       0.80379067       0.19620933       0.50000000 </v>
   <v>       0.30379067       0.30379067       0.00000000 </v>
   <v>       0.69620933       0.69620933       0.00000000 </v>
  </varray>
 </structure>
 <calculation>
  <scstep>
   <time name="dav">    0.87    1.20</time>
   <time name="total">    0.93    1.31</time>
   <energy>
    <i name="alphaZ">    184.33841299 </i>
    <i name="ewald">  -3605.32907450 </i>
    <i name="hartreedc">  -1216.26544692 </i>
    <i name="XCdc">    236.01270431 </i>
    <i name="pawpsdc">   7402.25405781 </i>
    <i name="pawaedc">  -7386.75226356 </i>
    <i name="eentropy">     -0.00000000 </i>
    <i name="bandstr">   -568.40764714 </i>
    <i name="atom">   4905.63925112 </i>
    <i name="e_fr_energy">    -48.51000588 </i>
    <i name="e_wo_entrp">    -48.51000588 </i>
    <i name="e_0_energy">    -48.51000588 </i>
   </energy>
  </scstep>
  <scstep>
   <time name="dav">    0.67    0.67</time>
   <time name="total">    0.71    0.75</time>
   <energy>
    <i name="e_fr_energy">    -53.55474868 </i>
    <i name="e_wo_entrp">    -53.55474868 </i>
    <i name="e_0_energy">    -53.55474868 </i>
   </energy>
  </scstep>
  <scstep>
   <time name="dav">    0.91    0.91</time>
   <time name="total">    0.96    0.96</time>
   <energy>
    <i name="e_fr_energy">    -53.93510646 </i>
    <i name="e_wo_entrp">    -53.93510646 </i>
    <i name="e_0_energy">    -53.93510646 </i>
   </energy>
  </scstep>
  <scstep>
   <time name="dav">    0.85    0.85</time>
   <time name="total">    0.89    0.89</time>
   <energy>
    <i name="e_fr_energy">    -53.62886431 </i>
    <i name="e_wo_entrp">    -53.62886431 </i>
    <i name="e_0_energy">    -53.62886431 </i>
   </energy>
  </scstep>
  <scstep>
   <time name="dav">    0.80    0.80</time>
   <time name="total">    0.84    0.84</time>
   <energy>
    <i name="e_fr_energy">    -53.60879992 </i>
    <i name="e_wo_entrp">    -53.60879992 </i>
    <i name="e_0_energy">    -53.60879992 </i>
   </energy>
  </scstep>
  <scstep>
   <time name="dav">    0.80    0.80</time>
   <time name="total">    0.84    0.84</time>
   <energy>
    <i name="e_fr_energy">    -53.61010296 </i>
    <i name="e_wo_entrp">    -53.61010296 </i>
    <i name="e_0_energy">    -53.61010296 </i>
   </energy>
  </scstep>
  <scstep>
   <time name="dav">    0.79    0.79</time>
   <time name="total">    0.83    0.83</time>
   <energy>
    <i name="e_fr_energy">    -53.60956286 </i>
    <i name="e_wo_entrp">    -53.60956286 </i>
    <i name="e_0_energy">    -53.60956286 </i>
   </energy>
  </scstep>
  <scstep>
   <time name="dav">    0.68    0.68</time>
   <time name="total">    0.72    0.72</time>
   <energy>
    <i name="e_fr_energy">    -53.60943391 </i>
    <i name="e_wo_entrp">    -53.60943391 </i>
    <i name="e_0_energy">    -53.60943391 </i>
   </energy>
  </scstep>
  <scstep>
   <time name="dav">    0.67    0.67</time>
   <time name="total">    0.70    0.70</time>
   <energy>
    <i name="e_fr_energy">    -53.60940409 </i>
    <i name="e_wo_entrp">    -53.60940409 </i>
    <i name="e_0_energy">    -53.60940409 </i>
   </energy>
  </scstep>
  <scstep>
   <time name="dav">    0.73    0.73</time>
   <time name="total">    0.77    0.77</time>
   <energy>
    <i name="e_fr_energy">    -53.60939176 </i>
    <i name="e_wo_entrp">    -53.60939176 </i>
    <i name="e_0_energy">    -53.60939176 </i>
   </energy>
  </scstep>
  <scstep>
   <time name="dav">    0.48    0.48</time>
   <time name="total">    0.48    0.48</time>
   <energy>
    <i name="alphaZ">    184.33841299 </i>
    <i name="ewald">  -3605.32907450 </i>
    <i name="hartreedc">  -1224.17394769 </i>
    <i name="XCdc">    236.18841691 </i>
    <i name="pawpsdc">   7134.60906657 </i>
    <i name="pawaedc">  -7107.32266268 </i>
    <i name="eentropy">     -0.00000000 </i>
    <i name="bandstr">   -577.55885505 </i>
    <i name="atom">   4905.63925112 </i>
    <i name="e_fr_energy">    -53.60939232 </i>
    <i name="e_wo_entrp">    -53.60939232 </i>
    <i name="e_0_energy">    -53.60939232 </i>
   </energy>
  </scstep>
  <structure>
   <crystal>
    <varray name="basis" >
     <v>       4.58400000       0.00000000       0.00000000 </v>
     <v>       0.00000000       4.58400000       0.00000000 </v>
     <v>       0.00000000       0.00000000       2.95300000 </v>
    </varray>
    <i name="volume">     62.05155437 </i>
    <varray name="rec_basis" >
     <v>       0.21815009       0.00000000       0.00000000 </v>
     <v>       0.00000000       0.21815009       0.00000000 </v>
     <v>       0.00000000       0.00000000       0.33863867 </v>
    </varray>
   </crystal>
   <varray name="positions" >
    <v>       0.00000000       0.00000000       0.00000000 </v>
    <v>       0.50000000       0.50000000       0.50000000 </v>
    <v>       0.19620933       0.80379067       0.50000000 </v>
    <v>       0.80379067       0.19620933       0.50000000 </v>
    <v>       0.30379067       0.30379067       0.00000000 </v>
    <v>       0.69620933       0.69620933       0.00000000 </v>
   </varray>
  </structure>
  <varray name="forces" >
   <v>       0.00000000       0.00000000      -0.00000000 </v>
   <v>       0.00000000       0.00000000      -0.00000000 </v>
   <v>       0.00112963      -0.00112963       0.00000000 </v>
   <v>      -0.00112963       0.00112963       0.00000000 </v>
   <v>      -0.00112963      -0.00112963       0.00000000 </v>
   <v>       0.00112963       0.00112963       0.00000000 </v>
  </varray>
  <varray name="stress" >
   <v>      67.83755408      -0.00000000       0.00000000 </v>
   <v>       0.00000000      67.83755408       0.00000000 </v>
   <v>       0.00000000       0.00000000      67.10171482 </v>
  </varray>
  <energy>
   <i name="e_fr_energy">    -53.60939232 </i>
   <i name="e_wo_entrp">    -53.60939232 </i>
   <i name="e_0_energy">    -53.60939232 </i>
  </energy>
  <time name="totalsc">   10.05   11.11</time>
  <eigenvalues>
   <array>
    <dimension dim="1">band</dimension>
    <dimension dim="2">kpoint</dimension>
    <dimension dim="3">spin</dimension>
    <field>eigene</field>
    <field>occ</field>
    <set>
     <set comment="spin 1">
      <set comment="kpoint 1">
       <r>  -51.6351    1.0000 </r>
       <r>  -51.6176    1.0000 </r>
       <r>  -27.9484    1.0000 </r>
       <r>  -27.9484    1.0000 </r>
       <r>  -27.7794    1.0000 </r>
       <r>  -27.7794    1.0000 </r>
       <r>  -27.7400    1.0000 </r>
       <r>  -27.7050    1.0000 </r>
       <r>  -12.9522    1.0000 </r>
       <r>  -11.7724    1.0000 </r>
       <r>  -11.0325    1.0000 </r>
       <r>  -11.0325    1.0000 </r>
       <r>   -0.5211    1.0000 </r>
       <r>   -0.1079    1.0000 </r>
       <r>    0.3157    1.0000 </r>
       <r>    1.4495    1.0000 </r>
       <r>    1.4495    1.0000 </r>
       <r>    2.7133    1.0000 </r>
       <r>    2.7133    1.0000 </r>
       <r>    3.2776    1.0000 </r>
       <r>    4.5711    1.0000 </r>
       <r>    4.8251    1.0000 </r>
       <r>    4.8251    1.0000 </r>
       <r>    5.3057    1.0000 </r>
       <r>    7.1341    0.0000 </r>
       <r>    7.4147    0.0000 </r>
       <r>    7.6682    0.0000 </r>
       <r>    7.7759    0.0000 </r>
      </set>
      <set comment="kpoint 2">
       <r>  -51.6343    1.0000 </r>
       <r>  -51.6182    1.0000 </r>
       <r>  -27.9432    1.0000 </r>
       <r>  -27.9427    1.0000 </r>
       <r>  -27.7858    1.0000 </r>
       <r>  -27.7852    1.0000 </r>
       <r>  -27.7387    1.0000 </r>
       <r>  -27.7063    1.0000 </r>
       <r>  -12.8959    1.0000 </r>
       <r>  -11.7723    1.0000 </r>
       <r>  -11.0914    1.0000 </r>
       <r>  -11.0546    1.0000 </r>
       <r>   -0.4145    1.0000 </r>
       <r>   -0.0412    1.0000 </r>
       <r>    0.4174    1.0000 </r>
       <r>    1.4562    1.0000 </r>
       <r>    1.4614    1.0000 </r>
       <r>    2.6089    1.0000 </r>
       <r>    2.6864    1.0000 </r>
       <r>    3.2835    1.0000 </r>
       <r>    4.4648    1.0000 </r>
       <r>    4.5333    1.0000 </r>
       <r>    4.6872    1.0000 </r>
       <r>    5.2496    1.0000 </r>
       <r>    7.2247    0.0000 </r>
       <r>    7.5376    0.0000 </r>
       <r>    7.7889    0.0000 </r>
       <r>    7.8420    0.0000 </r>
      </set>
      <set comment="kpoint 3">
       <r>  -51.6325    1.0000 </r>
       <r>  -51.6200    1.0000 </r>
       <r>  -27.9284    1.0000 </r>
       <r>  -27.9267    1.0000 </r>
       <r>  -27.8033    1.0000 </r>
       <r>  -27.8015    1.0000 </r>
       <r>  -27.7348    1.0000 </r>
       <r>  -27.7101    1.0000 </r>
       <r>  -12.7343    1.0000 </r>
       <r>  -11.7991    1.0000 </r>
       <r>  -11.2243    1.0000 </r>
       <r>  -11.1154    1.0000 </r>
       <r>   -0.1470    1.0000 </r>
       <r>    0.1331    1.0000 </r>
       <r>    0.7393    1.0000 </r>
       <r>    1.4743    1.0000 </r>
       <r>    1.4886    1.0000 </r>
       <r>    2.3595    1.0000 </r>
       <r>    2.5689    1.0000 </r>
       <r>    3.3180    1.0000 </r>
       <r>    3.8353    1.0000 </r>
       <r>    4.2025    1.0000 </r>
       <r>    4.4600    1.0000 </r>
       <r>    5.0675    1.0000 </r>
       <r>    7.4315    0.0000 </r>
       <r>    7.7457    0.0000 </r>
       <r>    8.0103    0.0000 </r>
       <r>    8.0823    0.0000 </r>
      </set>
      <set comment="kpoint 4">
       <r>  -51.6296    1.0000 </r>
       <r>  -51.6228    1.0000 </r>
       <r>  -27.9074    1.0000 </r>
       <r>  -27.9050    1.0000 </r>
       <r>  -27.8266    1.0000 </r>
       <r>  -27.8241    1.0000 </r>
       <r>  -27.7291    1.0000 </r>
       <r>  -27.7158    1.0000 </r>
       <r>  -12.4889    1.0000 </r>
       <r>  -11.9374    1.0000 </r>
       <r>  -11.3057    1.0000 </r>
       <r>  -11.1986    1.0000 </r>
       <r>    0.1561    1.0000 </r>
       <r>    0.3216    1.0000 </r>
       <r>    1.3034    1.0000 </r>
       <r>    1.4972    1.0000 </r>
       <r>    1.5110    1.0000 </r>
       <r>    2.1231    1.0000 </r>
       <r>    2.3337    1.0000 </r>
       <r>    2.9699    1.0000 </r>
       <r>    3.4189    1.0000 </r>
       <r>    3.8904    1.0000 </r>
       <r>    4.4018    1.0000 </r>
       <r>    4.8058    1.0000 </r>
       <r>    7.6489    0.0000 </r>
       <r>    7.8465    0.0000 </r>
       <r>    8.2046    0.0000 </r>
       <r>    8.2718    0.0000 </r>
      </set>
      <set comment="kpoint 5">
       <r>  -51.6262    1.0000 </r>
       <r>  -51.6262    1.0000 </r>
       <r>  -27.8925    1.0000 </r>
       <r>  -27.8925    1.0000 </r>
       <r>  -27.8397    1.0000 </r>
       <r>  -27.8397    1.0000 </r>
       <r>  -27.7224    1.0000 </r>
       <r>  -27.7224    1.0000 </r>
       <r>  -12.1996    1.0000 </r>
       <r>  -12.1996    1.0000 </r>
       <r>  -11.2775    1.0000 </r>
       <r>  -11.2775    1.0000 </r>
       <r>    0.3524    1.0000 </r>
       <r>    0.3524    1.0000 </r>
       <r>    1.5134    1.0000 </r>
       <r>    1.5134    1.0000 </r>
       <r>    2.0102    1.0000 </r>
       <r>    2.0102    1.0000 </r>
       <r>    2.1817    1.0000 </r>
       <r>    2.1817    1.0000 </r>
       <r>    3.6131    1.0000 </r>
       <r>    3.6131    1.0000 </r>
       <r>    4.5494    1.0000 </r>
       <r>    4.5494    1.0000 </r>
       <r>    7.8035    0.0000 </r>
       <r>    7.8035    0.0000 </r>
       <r>    8.3186    0.0000 </r>
       <r>    8.3186    0.0000 </r>
      </set>
      <set comment="kpoint 6">
       <r>  -51.6337    1.0000 </r>
       <r>  -51.6188    1.0000 </r>
       <r>  -27.9503    1.0000 </r>
       <r>  -27.9258    1.0000 </r>
       <r>  -27.8036    1.0000 </r>
       <r>  -27.7783    1.0000 </r>
       <r>  -27.7374    1.0000 </r>
       <r>  -27.7076    1.0000 </r>
       <r>  -12.8447    1.0000 </r>
       <r>  -11.7762    1.0000 </r>
       <r>  -11.1600    1.0000 </r>
       <r>  -11.0527    1.0000 </r>
       <r>   -0.3827    1.0000 </r>
       <r>    0.0773    1.0000 </r>
       <r>    0.5120    1.0000 </r>
       <r>    1.4388    1.0000 </r>
       <r>    1.4896    1.0000 </r>
       <r>    2.4483    1.0000 </r>
       <r>    2.7429    1.0000 </r>
       <r>    3.2935    1.0000 </r>
       <r>    4.2740    1.0000 </r>
       <r>    4.3901    1.0000 </r>
       <r>    4.6203    1.0000 </r>
       <r>    5.2024    1.0000 </r>
       <r>    7.2008    0.0000 </r>
       <r>    7.6660    0.0000 </r>
       <r>    7.7790    0.0000 </r>
       <r>    7.9121    0.0000 </r>
      </set>
      <set comment="kpoint 7">
       <r>  -51.6320    1.0000 </r>
       <r>  -51.6205    1.0000 </r>
       <r>  -27.9464    1.0000 </r>
       <r>  -27.9037    1.0000 </r>
       <r>  -27.8273    1.0000 </r>
       <r>  -27.7833    1.0000 </r>
       <r>  -27.7339    1.0000 </r>
       <r>  -27.7110    1.0000 </r>
       <r>  -12.6978    1.0000 </r>
       <r>  -11.8176    1.0000 </r>
       <r>  -11.2675    1.0000 </r>
       <r>  -11.0971    1.0000 </r>
       <r>   -0.2542    1.0000 </r>
       <r>    0.3037    1.0000 </r>
       <r>    0.8150    1.0000 </r>
       <r>    1.4398    1.0000 </r>
       <r>    1.5134    1.0000 </r>
       <r>    2.2222    1.0000 </r>
       <r>    2.6946    1.0000 </r>
       <r>    3.3413    1.0000 </r>
       <r>    3.7708    1.0000 </r>
       <r>    4.1898    1.0000 </r>
       <r>    4.3734    1.0000 </r>
       <r>    5.0208    1.0000 </r>
       <r>    7.3096    0.0000 </r>
       <r>    7.8161    0.0000 </r>
       <r>    7.8587    0.0000 </r>
       <r>    8.2420    0.0000 </r>
      </set>
      <set comment="kpoint 8">
       <r>  -51.6294    1.0000 </r>
       <r>  -51.6231    1.0000 </r>
       <r>  -27.9318    1.0000 </r>
       <r>  -27.8927    1.0000 </r>
       <r>  -27.8395    1.0000 </r>
       <r>  -27.7995    1.0000 </r>
       <r>  -27.7286    1.0000 </r>
       <r>  -27.7163    1.0000 </r>
       <r>  -12.4751    1.0000 </r>
       <r>  -11.9665    1.0000 </r>
       <r>  -11.3078    1.0000 </r>
       <r>  -11.1763    1.0000 </r>
       <r>   -0.0265    1.0000 </r>
       <r>    0.3910    1.0000 </r>
       <r>    1.3219    1.0000 </r>
       <r>    1.4608    1.0000 </r>
       <r>    1.5141    1.0000 </r>
       <r>    2.1665    1.0000 </r>
       <r>    2.4258    1.0000 </r>
       <r>    3.1511    1.0000 </r>
       <r>    3.4606    1.0000 </r>
       <r>    3.9245    1.0000 </r>
       <r>    4.2699    1.0000 </r>
       <r>    4.7309    1.0000 </r>
       <r>    7.5295    0.0000 </r>
       <r>    7.8401    0.0000 </r>
       <r>    8.0468    0.0000 </r>
       <r>    8.3235    0.0000 </r>
      </set>
      <set comment="kpoint 9">
       <r>  -51.6262    1.0000 </r>
       <r>  -51.6262    1.0000 </r>
       <r>  -27.9099    1.0000 </r>
       <r>  -27.9099    1.0000 </r>
       <r>  -27.8224    1.0000 </r>
       <r>  -27.8224    1.0000 </r>
       <r>  -27.7224    1.0000 </r>
       <r>  -27.7224    1.0000 </r>
       <r>  -12.2120    1.0000 </r>
       <r>  -12.2120    1.0000 </r>
       <r>  -11.2602    1.0000 </r>
       <r>  -11.2602    1.0000 </r>
       <r>    0.2359    1.0000 </r>
       <r>    0.2359    1.0000 </r>
       <r>    1.4915    1.0000 </r>
       <r>    1.4915    1.0000 </r>
       <r>    1.8929    1.0000 </r>
       <r>    1.8929    1.0000 </r>
       <r>    2.5487    1.0000 </r>
       <r>    2.5487    1.0000 </r>
       <r>    3.6634    1.0000 </r>
       <r>    3.6634    1.0000 </r>
       <r>    4.4364    1.0000 </r>
       <r>    4.4364    1.0000 </r>
       <r>    7.7317    0.0000 </r>
       <r>    7.7317    0.0000 </r>
       <r>    8.2397    0.0000 </r>
       <r>    8.2397    0.0000 </r>
      </set>
      <set comment="kpoint 10">
       <r>  -51.6308    1.0000 </r>
       <r>  -51.6219    1.0000 </r>
       <r>  -27.9549    1.0000 </r>
       <r>  -27.8930    1.0000 </r>
       <r>  -27.8392    1.0000 </r>
       <r>  -27.7754    1.0000 </r>
       <r>  -27.7312    1.0000 </r>
       <r>  -27.7137    1.0000 </r>
       <r>  -12.5930    1.0000 </r>
       <r>  -11.8946    1.0000 </r>
       <r>  -11.3089    1.0000 </r>
       <r>  -11.1006    1.0000 </r>
       <r>   -0.3124    1.0000 </r>
       <r>    0.4245    1.0000 </r>
       <r>    1.0570    1.0000 </r>
       <r>    1.4131    1.0000 </r>
       <r>    1.5137    1.0000 </r>
       <r>    2.1686    1.0000 </r>
       <r>    2.8356    1.0000 </r>
       <r>    3.4251    1.0000 </r>
       <r>    3.5410    1.0000 </r>
       <r>    4.1270    1.0000 </r>
       <r>    4.1559    1.0000 </r>
       <r>    4.8792    1.0000 </r>
       <r>    7.2044    0.0000 </r>
       <r>    7.7870    0.0000 </r>
       <r>    7.8420    0.0000 </r>
       <r>    8.3237    0.0000 </r>
      </set>
      <set comment="kpoint 11">
       <r>  -51.6286    1.0000 </r>
       <r>  -51.6239    1.0000 </r>
       <r>  -27.9512    1.0000 </r>
       <r>  -27.9126    1.0000 </r>
       <r>  -27.8202    1.0000 </r>
       <r>  -27.7802    1.0000 </r>
       <r>  -27.7271    1.0000 </r>
       <r>  -27.7177    1.0000 </r>
       <r>  -12.4330    1.0000 </r>
       <r>  -12.0467    1.0000 </r>
       <r>  -11.2868    1.0000 </r>
       <r>  -11.1473    1.0000 </r>
       <r>   -0.2258    1.0000 </r>
       <r>    0.2614    1.0000 </r>
       <r>    1.4137    1.0000 </r>
       <r>    1.4794    1.0000 </r>
       <r>    1.4830    1.0000 </r>
       <r>    2.3009    1.0000 </r>
       <r>    2.7722    1.0000 </r>
       <r>    3.3719    1.0000 </r>
       <r>    3.5809    1.0000 </r>
       <r>    3.9579    1.0000 </r>
       <r>    3.9854    1.0000 </r>
       <r>    4.5831    1.0000 </r>
       <r>    7.3059    0.0000 </r>
       <r>    7.7398    0.0000 </r>
       <r>    7.8672    0.0000 </r>
       <r>    8.2441    0.0000 </r>
      </set>
      <set comment="kpoint 12">
       <r>  -51.6262    1.0000 </r>
       <r>  -51.6262    1.0000 </r>
       <r>  -27.9359    1.0000 </r>
       <r>  -27.9359    1.0000 </r>
       <r>  -27.7965    1.0000 </r>
       <r>  -27.7965    1.0000 </r>
       <r>  -27.7224    1.0000 </r>
       <r>  -27.7224    1.0000 </r>
       <r>  -12.2405    1.0000 </r>
       <r>  -12.2405    1.0000 </r>
       <r>  -11.2200    1.0000 </r>
       <r>  -11.2200    1.0000 </r>
       <r>   -0.0105    1.0000 </r>
       <r>   -0.0105    1.0000 </r>
       <r>    1.4417    1.0000 </r>
       <r>    1.4417    1.0000 </r>
       <r>    1.9822    1.0000 </r>
       <r>    1.9822    1.0000 </r>
       <r>    3.0324    1.0000 </r>
       <r>    3.0324    1.0000 </r>
       <r>    3.7851    1.0000 </r>
       <r>    3.7851    1.0000 </r>
       <r>    4.1870    1.0000 </r>
       <r>    4.1870    1.0000 </r>
       <r>    7.5337    0.0000 </r>
       <r>    7.5337    0.0000 </r>
       <r>    8.0544    0.0000 </r>
       <r>    8.0544    0.0000 </r>
      </set>
      <set comment="kpoint 13">
       <r>  -51.6275    1.0000 </r>
       <r>  -51.6249    1.0000 </r>
       <r>  -27.9595    1.0000 </r>
       <r>  -27.9377    1.0000 </r>
       <r>  -27.7953    1.0000 </r>
       <r>  -27.7726    1.0000 </r>
       <r>  -27.7249    1.0000 </r>
       <r>  -27.7198    1.0000 </r>
       <r>  -12.3626    1.0000 </r>
       <r>  -12.1555    1.0000 </r>
       <r>  -11.2366    1.0000 </r>
       <r>  -11.1472    1.0000 </r>
       <r>   -0.3005    1.0000 </r>
       <r>   -0.0043    1.0000 </r>
       <r>    1.3876    1.0000 </r>
       <r>    1.4336    1.0000 </r>
       <r>    1.8213    1.0000 </r>
       <r>    2.4501    1.0000 </r>
       <r>    2.9838    1.0000 </r>
       <r>    3.5762    1.0000 </r>
       <r>    3.6396    1.0000 </r>
       <r>    3.7500    1.0000 </r>
       <r>    3.9947    1.0000 </r>
       <r>    4.4335    1.0000 </r>
       <r>    7.1814    0.0000 </r>
       <r>    7.5293    0.0000 </r>
       <r>    7.7956    0.0000 </r>
       <r>    8.0573    0.0000 </r>
      </set>
      <set comment="kpoint 14">
       <r>  -51.6262    1.0000 </r>
       <r>  -51.6262    1.0000 </r>
       <r>  -27.9547    1.0000 </r>
       <r>  -27.9547    1.0000 </r>
       <r>  -27.7780    1.0000 </r>
       <r>  -27.7780    1.0000 </r>
       <r>  -27.7224    1.0000 </r>
       <r>  -27.7224    1.0000 </r>
       <r>  -12.2669    1.0000 </r>
       <r>  -12.2669    1.0000 </r>
       <r>  -11.1816    1.0000 </r>
       <r>  -11.1816    1.0000 </r>
       <r>   -0.2199    1.0000 </r>
       <r>   -0.2199    1.0000 </r>
       <r>    1.3954    1.0000 </r>
       <r>    1.3954    1.0000 </r>
       <r>    2.2331    1.0000 </r>
       <r>    2.2331    1.0000 </r>
       <r>    3.1994    1.0000 </r>
       <r>    3.1994    1.0000 </r>
       <r>    3.9087    1.0000 </r>
       <r>    3.9087    1.0000 </r>
       <r>    4.1073    1.0000 </r>
       <r>    4.1073    1.0000 </r>
       <r>    7.2889    0.0000 </r>
       <r>    7.2889    0.0000 </r>
       <r>    7.8735    0.0000 </r>
       <r>    7.8735    0.0000 </r>
      </set>
      <set comment="kpoint 15">
       <r>  -51.6262    1.0000 </r>
       <r>  -51.6262    1.0000 </r>
       <r>  -27.9614    1.0000 </r>
       <r>  -27.9614    1.0000 </r>
       <r>  -27.7714    1.0000 </r>
       <r>  -27.7714    1.0000 </r>
       <r>  -27.7223    1.0000 </r>
       <r>  -27.7223    1.0000 </r>
       <r>  -12.2774    1.0000 </r>
       <r>  -12.2774    1.0000 </r>
       <r>  -11.1661    1.0000 </r>
       <r>  -11.1661    1.0000 </r>
       <r>   -0.2986    1.0000 </r>
       <r>   -0.2986    1.0000 </r>
       <r>    1.3770    1.0000 </r>
       <r>    1.3770    1.0000 </r>
       <r>    2.4184    1.0000 </r>
       <r>    2.4184    1.0000 </r>
       <r>    3.0816    1.0000 </r>
       <r>    3.0816    1.0000 </r>
       <r>    3.9607    1.0000 </r>
       <r>    3.9607    1.0000 </r>
       <r>    4.1920    1.0000 </r>
       <r>    4.1920    1.0000 </r>
       <r>    7.1679    0.0000 </r>
       <r>    7.1679    0.0000 </r>
       <r>    7.7992    0.0000 </r>
       <r>    7.7992    0.0000 </r>
      </set>
      <set comment="kpoint 16">
       <r>  -51.6285    1.0000 </r>
       <r>  -51.6121    1.0000 </r>
       <r>  -27.9309    1.0000 </r>
       <r>  -27.9309    1.0000 </r>
       <r>  -27.8069    1.0000 </r>
       <r>  -27.7765    1.0000 </r>
       <r>  -27.7765    1.0000 </r>
       <r>  -27.7756    1.0000 </r>
       <r>  -12.7904    1.0000 </r>
       <r>  -11.6820    1.0000 </r>
       <r>  -11.1085    1.0000 </r>
       <r>  -11.1085    1.0000 </r>
       <r>   -0.2959    1.0000 </r>
       <r>    0.0609    1.0000 </r>
       <r>    0.4958    1.0000 </r>
       <r>    1.2772    1.0000 </r>
       <r>    1.2772    1.0000 </r>
       <r>    2.8203    1.0000 </r>
       <r>    3.0274    1.0000 </r>
       <r>    3.0274    1.0000 </r>
       <r>    3.9470    1.0000 </r>
       <r>    4.5130    1.0000 </r>
       <r>    4.5130    1.0000 </r>
       <r>    5.2192    1.0000 </r>
       <r>    7.5039    0.0000 </r>
       <r>    7.5611    0.0000 </r>
       <r>    7.5761    0.0000 </r>
       <r>    7.9757    0.0000 </r>
      </set>
      <set comment="kpoint 17">
       <r>  -51.6278    1.0000 </r>
       <r>  -51.6128    1.0000 </r>
       <r>  -27.9266    1.0000 </r>
       <r>  -27.9256    1.0000 </r>
       <r>  -27.8065    1.0000 </r>
       <r>  -27.7904    1.0000 </r>
       <r>  -27.7805    1.0000 </r>
       <r>  -27.7687    1.0000 </r>
       <r>  -12.7378    1.0000 </r>
       <r>  -11.6783    1.0000 </r>
       <r>  -11.1655    1.0000 </r>
       <r>  -11.1279    1.0000 </r>
       <r>   -0.1999    1.0000 </r>
       <r>    0.1299    1.0000 </r>
       <r>    0.5677    1.0000 </r>
       <r>    1.2702    1.0000 </r>
       <r>    1.3338    1.0000 </r>
       <r>    2.7167    1.0000 </r>
       <r>    2.9075    1.0000 </r>
       <r>    3.0858    1.0000 </r>
       <r>    3.7803    1.0000 </r>
       <r>    4.4263    1.0000 </r>
       <r>    4.4265    1.0000 </r>
       <r>    5.1510    1.0000 </r>
       <r>    7.5598    0.0000 </r>
       <r>    7.6371    0.0000 </r>
       <r>    7.6880    0.0000 </r>
       <r>    7.9966    0.0000 </r>
      </set>
      <set comment="kpoint 18">
       <r>  -51.6261    1.0000 </r>
       <r>  -51.6145    1.0000 </r>
       <r>  -27.9143    1.0000 </r>
       <r>  -27.9106    1.0000 </r>
       <r>  -27.8111    1.0000 </r>
       <r>  -27.8102    1.0000 </r>
       <r>  -27.7869    1.0000 </r>
       <r>  -27.7677    1.0000 </r>
       <r>  -12.5864    1.0000 </r>
       <r>  -11.6929    1.0000 </r>
       <r>  -11.2969    1.0000 </r>
       <r>  -11.1816    1.0000 </r>
       <r>    0.0486    1.0000 </r>
       <r>    0.3134    1.0000 </r>
       <r>    0.7766    1.0000 </r>
       <r>    1.2495    1.0000 </r>
       <r>    1.4898    1.0000 </r>
       <r>    2.5976    1.0000 </r>
       <r>    2.6256    1.0000 </r>
       <r>    3.0322    1.0000 </r>
       <r>    3.3637    1.0000 </r>
       <r>    4.1176    1.0000 </r>
       <r>    4.3450    1.0000 </r>
       <r>    4.9934    1.0000 </r>
       <r>    7.6743    0.0000 </r>
       <r>    7.8764    0.0000 </r>
       <r>    7.9139    0.0000 </r>
       <r>    8.0817    0.0000 </r>
      </set>
      <set comment="kpoint 19">
       <r>  -51.6234    1.0000 </r>
       <r>  -51.6171    1.0000 </r>
       <r>  -27.8957    1.0000 </r>
       <r>  -27.8896    1.0000 </r>
       <r>  -27.8347    1.0000 </r>
       <r>  -27.8273    1.0000 </r>
       <r>  -27.7847    1.0000 </r>
       <r>  -27.7715    1.0000 </r>
       <r>  -12.3558    1.0000 </r>
       <r>  -11.8242    1.0000 </r>
       <r>  -11.3688    1.0000 </r>
       <r>  -11.2564    1.0000 </r>
       <r>    0.3432    1.0000 </r>
       <r>    0.5173    1.0000 </r>
       <r>    1.0630    1.0000 </r>
       <r>    1.2264    1.0000 </r>
       <r>    1.7128    1.0000 </r>
       <r>    2.3169    1.0000 </r>
       <r>    2.5255    1.0000 </r>
       <r>    2.8594    1.0000 </r>
       <r>    2.9278    1.0000 </r>
       <r>    3.6278    1.0000 </r>
       <r>    4.4365    1.0000 </r>
       <r>    4.8125    1.0000 </r>
       <r>    7.8246    0.0000 </r>
       <r>    7.9779    0.0000 </r>
       <r>    8.1708    0.0000 </r>
       <r>    8.2729    0.0000 </r>
      </set>
      <set comment="kpoint 20">
       <r>  -51.6202    1.0000 </r>
       <r>  -51.6202    1.0000 </r>
       <r>  -27.8784    1.0000 </r>
       <r>  -27.8784    1.0000 </r>
       <r>  -27.8460    1.0000 </r>
       <r>  -27.8460    1.0000 </r>
       <r>  -27.7779    1.0000 </r>
       <r>  -27.7779    1.0000 </r>
       <r>  -12.0808    1.0000 </r>
       <r>  -12.0808    1.0000 </r>
       <r>  -11.3315    1.0000 </r>
       <r>  -11.3315    1.0000 </r>
       <r>    0.5462    1.0000 </r>
       <r>    0.5462    1.0000 </r>
       <r>    1.2185    1.0000 </r>
       <r>    1.2185    1.0000 </r>
       <r>    2.0131    1.0000 </r>
       <r>    2.0131    1.0000 </r>
       <r>    2.5190    1.0000 </r>
       <r>    2.5190    1.0000 </r>
       <r>    3.1554    1.0000 </r>
       <r>    3.1554    1.0000 </r>
       <r>    4.6189    1.0000 </r>
       <r>    4.6189    1.0000 </r>
       <r>    7.9368    0.0000 </r>
       <r>    7.9368    0.0000 </r>
       <r>    8.3450    0.0000 </r>
       <r>    8.3450    0.0000 </r>
      </set>
      <set comment="kpoint 21">
       <r>  -51.6273    1.0000 </r>
       <r>  -51.6133    1.0000 </r>
       <r>  -27.9327    1.0000 </r>
       <r>  -27.9109    1.0000 </r>
       <r>  -27.8122    1.0000 </r>
       <r>  -27.7976    1.0000 </r>
       <r>  -27.7754    1.0000 </r>
       <r>  -27.7705    1.0000 </r>
       <r>  -12.6897    1.0000 </r>
       <r>  -11.6782    1.0000 </r>
       <r>  -11.2298    1.0000 </r>
       <r>  -11.1277    1.0000 </r>
       <r>   -0.1795    1.0000 </r>
       <r>    0.2539    1.0000 </r>
       <r>    0.6269    1.0000 </r>
       <r>    1.3107    1.0000 </r>
       <r>    1.3356    1.0000 </r>
       <r>    2.5702    1.0000 </r>
       <r>    2.9796    1.0000 </r>
       <r>    3.0383    1.0000 </r>
       <r>    3.6121    1.0000 </r>
       <r>    4.3627    1.0000 </r>
       <r>    4.4112    1.0000 </r>
       <r>    5.0747    1.0000 </r>
       <r>    7.5005    0.0000 </r>
       <r>    7.6336    0.0000 </r>
       <r>    7.8481    0.0000 </r>
       <r>    8.1312    0.0000 </r>
      </set>
      <set comment="kpoint 22">
       <r>  -51.6256    1.0000 </r>
       <r>  -51.6150    1.0000 </r>
       <r>  -27.9294    1.0000 </r>
       <r>  -27.8902    1.0000 </r>
       <r>  -27.8331    1.0000 </r>
       <r>  -27.7982    1.0000 </r>
       <r>  -27.7813    1.0000 </r>
       <r>  -27.7694    1.0000 </r>
       <r>  -12.5515    1.0000 </r>
       <r>  -11.7084    1.0000 </r>
       <r>  -11.3355    1.0000 </r>
       <r>  -11.1680    1.0000 </r>
       <r>   -0.0650    1.0000 </r>
       <r>    0.4918    1.0000 </r>
       <r>    0.7954    1.0000 </r>
       <r>    1.2746    1.0000 </r>
       <r>    1.4899    1.0000 </r>
       <r>    2.4222    1.0000 </r>
       <r>    2.8532    1.0000 </r>
       <r>    2.9097    1.0000 </r>
       <r>    3.4057    1.0000 </r>
       <r>    4.1288    1.0000 </r>
       <r>    4.2989    1.0000 </r>
       <r>    4.8984    1.0000 </r>
       <r>    7.5729    0.0000 </r>
       <r>    7.7675    0.0000 </r>
       <r>    7.9681    0.0000 </r>
       <r>    8.2527    0.0000 </r>
      </set>
      <set comment="kpoint 23">
       <r>  -51.6232    1.0000 </r>
       <r>  -51.6173    1.0000 </r>
       <r>  -27.9165    1.0000 </r>
       <r>  -27.8782    1.0000 </r>
       <r>  -27.8466    1.0000 </r>
       <r>  -27.8077    1.0000 </r>
       <r>  -27.7831    1.0000 </r>
       <r>  -27.7719    1.0000 </r>
       <r>  -12.3415    1.0000 </r>
       <r>  -11.8528    1.0000 </r>
       <r>  -11.3675    1.0000 </r>
       <r>  -11.2390    1.0000 </r>
       <r>    0.1574    1.0000 </r>
       <r>    0.5901    1.0000 </r>
       <r>    1.0041    1.0000 </r>
       <r>    1.2252    1.0000 </r>
       <r>    1.7566    1.0000 </r>
       <r>    2.3974    1.0000 </r>
       <r>    2.5611    1.0000 </r>
       <r>    2.8605    1.0000 </r>
       <r>    3.1763    1.0000 </r>
       <r>    3.6561    1.0000 </r>
       <r>    4.3302    1.0000 </r>
       <r>    4.7024    1.0000 </r>
       <r>    7.7428    0.0000 </r>
       <r>    7.9565    0.0000 </r>
       <r>    8.0402    0.0000 </r>
       <r>    8.3676    0.0000 </r>
      </set>
      <set comment="kpoint 24">
       <r>  -51.6202    1.0000 </r>
       <r>  -51.6202    1.0000 </r>
       <r>  -27.8964    1.0000 </r>
       <r>  -27.8964    1.0000 </r>
       <r>  -27.8286    1.0000 </r>
       <r>  -27.8286    1.0000 </r>
       <r>  -27.7774    1.0000 </r>
       <r>  -27.7774    1.0000 </r>
       <r>  -12.0915    1.0000 </r>
       <r>  -12.0915    1.0000 </r>
       <r>  -11.3166    1.0000 </r>
       <r>  -11.3166    1.0000 </r>
       <r>    0.4250    1.0000 </r>
       <r>    0.4250    1.0000 </r>
       <r>    1.1544    1.0000 </r>
       <r>    1.1544    1.0000 </r>
       <r>    2.1042    1.0000 </r>
       <r>    2.1042    1.0000 </r>
       <r>    2.7305    1.0000 </r>
       <r>    2.7305    1.0000 </r>
       <r>    3.1960    1.0000 </r>
       <r>    3.1960    1.0000 </r>
       <r>    4.5009    1.0000 </r>
       <r>    4.5009    1.0000 </r>
       <r>    7.8913    0.0000 </r>
       <r>    7.8913    0.0000 </r>
       <r>    8.2727    0.0000 </r>
       <r>    8.2727    0.0000 </r>
      </set>
      <set comment="kpoint 25">
       <r>  -51.6244    1.0000 </r>
       <r>  -51.6162    1.0000 </r>
       <r>  -27.9370    1.0000 </r>
       <r>  -27.8785    1.0000 </r>
       <r>  -27.8466    1.0000 </r>
       <r>  -27.7931    1.0000 </r>
       <r>  -27.7752    1.0000 </r>
       <r>  -27.7728    1.0000 </r>
       <r>  -12.4513    1.0000 </r>
       <r>  -11.7815    1.0000 </r>
       <r>  -11.3707    1.0000 </r>
       <r>  -11.1732    1.0000 </r>
       <r>   -0.1274    1.0000 </r>
       <r>    0.6249    1.0000 </r>
       <r>    0.8562    1.0000 </r>
       <r>    1.2291    1.0000 </r>
       <r>    1.6359    1.0000 </r>
       <r>    2.4471    1.0000 </r>
       <r>    2.7448    1.0000 </r>
       <r>    3.0762    1.0000 </r>
       <r>    3.3481    1.0000 </r>
       <r>    4.0880    1.0000 </r>
       <r>    4.1588    1.0000 </r>
       <r>    4.6706    1.0000 </r>
       <r>    7.4661    0.0000 </r>
       <r>    7.7754    0.0000 </r>
       <r>    7.9939    0.0000 </r>
       <r>    8.4546    0.0000 </r>
      </set>
      <set comment="kpoint 26">
       <r>  -51.6225    1.0000 </r>
       <r>  -51.6180    1.0000 </r>
       <r>  -27.9339    1.0000 </r>
       <r>  -27.8988    1.0000 </r>
       <r>  -27.8279    1.0000 </r>
       <r>  -27.7935    1.0000 </r>
       <r>  -27.7788    1.0000 </r>
       <r>  -27.7720    1.0000 </r>
       <r>  -12.2991    1.0000 </r>
       <r>  -11.9302    1.0000 </r>
       <r>  -11.3448    1.0000 </r>
       <r>  -11.2160    1.0000 </r>
       <r>   -0.0437    1.0000 </r>
       <r>    0.4528    1.0000 </r>
       <r>    0.9547    1.0000 </r>
       <r>    1.1593    1.0000 </r>
       <r>    1.9536    1.0000 </r>
       <r>    2.6548    1.0000 </r>
       <r>    2.7503    1.0000 </r>
       <r>    3.0336    1.0000 </r>
       <r>    3.3812    1.0000 </r>
       <r>    3.7445    1.0000 </r>
       <r>    4.0872    1.0000 </r>
       <r>    4.4274    1.0000 </r>
       <r>    7.5529    0.0000 </r>
       <r>    7.8723    0.0000 </r>
       <r>    7.9515    0.0000 </r>
       <r>    8.3076    0.0000 </r>
      </set>
      <set comment="kpoint 27">
       <r>  -51.6202    1.0000 </r>
       <r>  -51.6202    1.0000 </r>
       <r>  -27.9203    1.0000 </r>
       <r>  -27.9203    1.0000 </r>
       <r>  -27.8069    1.0000 </r>
       <r>  -27.8069    1.0000 </r>
       <r>  -27.7755    1.0000 </r>
       <r>  -27.7755    1.0000 </r>
       <r>  -12.1159    1.0000 </r>
       <r>  -12.1159    1.0000 </r>
       <r>  -11.2819    1.0000 </r>
       <r>  -11.2819    1.0000 </r>
       <r>    0.1722    1.0000 </r>
       <r>    0.1722    1.0000 </r>
       <r>    1.0633    1.0000 </r>
       <r>    1.0633    1.0000 </r>
       <r>    2.3369    1.0000 </r>
       <r>    2.3369    1.0000 </r>
       <r>    3.1518    1.0000 </r>
       <r>    3.1518    1.0000 </r>
       <r>    3.3031    1.0000 </r>
       <r>    3.3031    1.0000 </r>
       <r>    4.2034    1.0000 </r>
       <r>    4.2034    1.0000 </r>
       <r>    7.7516    0.0000 </r>
       <r>    7.7516    0.0000 </r>
       <r>    8.1023    0.0000 </r>
       <r>    8.1023    0.0000 </r>
      </set>
      <set comment="kpoint 28">
       <r>  -51.6214    1.0000 </r>
       <r>  -51.6190    1.0000 </r>
       <r>  -27.9413    1.0000 </r>
       <r>  -27.9219    1.0000 </r>
       <r>  -27.8072    1.0000 </r>
       <r>  -27.7895    1.0000 </r>
       <r>  -27.7755    1.0000 </r>
       <r>  -27.7702    1.0000 </r>
       <r>  -12.2301    1.0000 </r>
       <r>  -12.0333    1.0000 </r>
       <r>  -11.2984    1.0000 </r>
       <r>  -11.2176    1.0000 </r>
       <r>   -0.1186    1.0000 </r>
       <r>    0.1787    1.0000 </r>
       <r>    0.9586    1.0000 </r>
       <r>    1.0770    1.0000 </r>
       <r>    2.2895    1.0000 </r>
       <r>    2.8443    1.0000 </r>
       <r>    3.1436    1.0000 </r>
       <r>    3.1797    1.0000 </r>
       <r>    3.4095    1.0000 </r>
       <r>    3.7695    1.0000 </r>
       <r>    3.8000    1.0000 </r>
       <r>    4.1821    1.0000 </r>
       <r>    7.4470    0.0000 </r>
       <r>    7.7759    0.0000 </r>
       <r>    7.8778    0.0000 </r>
       <r>    8.1172    0.0000 </r>
      </set>
      <set comment="kpoint 29">
       <r>  -51.6202    1.0000 </r>
       <r>  -51.6202    1.0000 </r>
       <r>  -27.9371    1.0000 </r>
       <r>  -27.9371    1.0000 </r>
       <r>  -27.7943    1.0000 </r>
       <r>  -27.7943    1.0000 </r>
       <r>  -27.7716    1.0000 </r>
       <r>  -27.7716    1.0000 </r>
       <r>  -12.1386    1.0000 </r>
       <r>  -12.1386    1.0000 </r>
       <r>  -11.2489    1.0000 </r>
       <r>  -11.2489    1.0000 </r>
       <r>   -0.0384    1.0000 </r>
       <r>   -0.0384    1.0000 </r>
       <r>    1.0030    1.0000 </r>
       <r>    1.0030    1.0000 </r>
       <r>    2.6740    1.0000 </r>
       <r>    2.6740    1.0000 </r>
       <r>    3.3409    1.0000 </r>
       <r>    3.3409    1.0000 </r>
       <r>    3.4592    1.0000 </r>
       <r>    3.4592    1.0000 </r>
       <r>    3.9512    1.0000 </r>
       <r>    3.9512    1.0000 </r>
       <r>    7.5554    0.0000 </r>
       <r>    7.5554    0.0000 </r>
       <r>    7.9578    0.0000 </r>
       <r>    7.9578    0.0000 </r>
      </set>
      <set comment="kpoint 30">
       <r>  -51.6202    1.0000 </r>
       <r>  -51.6202    1.0000 </r>
       <r>  -27.9431    1.0000 </r>
       <r>  -27.9431    1.0000 </r>
       <r>  -27.7910    1.0000 </r>
       <r>  -27.7910    1.0000 </r>
       <r>  -27.7691    1.0000 </r>
       <r>  -27.7691    1.0000 </r>
       <r>  -12.1475    1.0000 </r>
       <r>  -12.1475    1.0000 </r>
       <r>  -11.2356    1.0000 </r>
       <r>  -11.2356    1.0000 </r>
       <r>   -0.1168    1.0000 </r>
       <r>   -0.1168    1.0000 </r>
       <r>    0.9819    1.0000 </r>
       <r>    0.9819    1.0000 </r>
       <r>    2.9881    1.0000 </r>
       <r>    2.9881    1.0000 </r>
       <r>    3.1894    1.0000 </r>
       <r>    3.1894    1.0000 </r>
       <r>    3.4462    1.0000 </r>
       <r>    3.4462    1.0000 </r>
       <r>    3.9816    1.0000 </r>
       <r>    3.9816    1.0000 </r>
       <r>    7.4559    0.0000 </r>
       <r>    7.4559    0.0000 </r>
       <r>    7.9051    0.0000 </r>
       <r>    7.9051    0.0000 </r>
      </set>
      <set comment="kpoint 31">
       <r>  -51.6121    1.0000 </r>
       <r>  -51.5995    1.0000 </r>
       <r>  -27.9651    1.0000 </r>
       <r>  -27.9428    1.0000 </r>
       <r>  -27.8865    1.0000 </r>
       <r>  -27.8865    1.0000 </r>
       <r>  -27.7712    1.0000 </r>
       <r>  -27.7712    1.0000 </r>
       <r>  -12.3718    1.0000 </r>
       <r>  -11.4862    1.0000 </r>
       <r>  -11.2912    1.0000 </r>
       <r>  -11.2912    1.0000 </r>
       <r>    0.2752    1.0000 </r>
       <r>    0.4679    1.0000 </r>
       <r>    1.0223    1.0000 </r>
       <r>    1.1537    1.0000 </r>
       <r>    1.1537    1.0000 </r>
       <r>    1.9341    1.0000 </r>
       <r>    2.8167    1.0000 </r>
       <r>    3.5013    1.0000 </r>
       <r>    3.5013    1.0000 </r>
       <r>    3.7801    1.0000 </r>
       <r>    3.7801    1.0000 </r>
       <r>    4.8106    1.0000 </r>
       <r>    7.5156    0.0000 </r>
       <r>    7.8121    0.0000 </r>
       <r>    8.1025    0.0000 </r>
       <r>    9.3920    0.0000 </r>
      </set>
      <set comment="kpoint 32">
       <r>  -51.6116    1.0000 </r>
       <r>  -51.6001    1.0000 </r>
       <r>  -27.9679    1.0000 </r>
       <r>  -27.9463    1.0000 </r>
       <r>  -27.8815    1.0000 </r>
       <r>  -27.8794    1.0000 </r>
       <r>  -27.7749    1.0000 </r>
       <r>  -27.7739    1.0000 </r>
       <r>  -12.3330    1.0000 </r>
       <r>  -11.4813    1.0000 </r>
       <r>  -11.3345    1.0000 </r>
       <r>  -11.3007    1.0000 </r>
       <r>    0.3271    1.0000 </r>
       <r>    0.5402    1.0000 </r>
       <r>    0.9058    1.0000 </r>
       <r>    1.1317    1.0000 </r>
       <r>    1.4034    1.0000 </r>
       <r>    1.9147    1.0000 </r>
       <r>    2.5858    1.0000 </r>
       <r>    3.4304    1.0000 </r>
       <r>    3.4541    1.0000 </r>
       <r>    3.7876    1.0000 </r>
       <r>    3.8436    1.0000 </r>
       <r>    4.8129    1.0000 </r>
       <r>    7.4734    0.0000 </r>
       <r>    7.9135    0.0000 </r>
       <r>    8.1497    0.0000 </r>
       <r>    8.3596    0.0000 </r>
      </set>
      <set comment="kpoint 33">
       <r>  -51.6102    1.0000 </r>
       <r>  -51.6014    1.0000 </r>
       <r>  -27.9726    1.0000 </r>
       <r>  -27.9545    1.0000 </r>
       <r>  -27.8684    1.0000 </r>
       <r>  -27.8626    1.0000 </r>
       <r>  -27.7855    1.0000 </r>
       <r>  -27.7819    1.0000 </r>
       <r>  -12.2216    1.0000 </r>
       <r>  -11.4779    1.0000 </r>
       <r>  -11.4450    1.0000 </r>
       <r>  -11.3266    1.0000 </r>
       <r>    0.4758    1.0000 </r>
       <r>    0.7432    1.0000 </r>
       <r>    0.8621    1.0000 </r>
       <r>    1.0726    1.0000 </r>
       <r>    1.8041    1.0000 </r>
       <r>    1.8876    1.0000 </r>
       <r>    2.1425    1.0000 </r>
       <r>    3.1793    1.0000 </r>
       <r>    3.2058    1.0000 </r>
       <r>    3.8764    1.0000 </r>
       <r>    3.9656    1.0000 </r>
       <r>    4.7594    1.0000 </r>
       <r>    7.4692    0.0000 </r>
       <r>    8.1488    0.0000 </r>
       <r>    8.2271    0.0000 </r>
       <r>    8.2645    0.0000 </r>
      </set>
      <set comment="kpoint 34">
       <r>  -51.6082    1.0000 </r>
       <r>  -51.6034    1.0000 </r>
       <r>  -27.9742    1.0000 </r>
       <r>  -27.9638    1.0000 </r>
       <r>  -27.8513    1.0000 </r>
       <r>  -27.8438    1.0000 </r>
       <r>  -27.7998    1.0000 </r>
       <r>  -27.7942    1.0000 </r>
       <r>  -12.0526    1.0000 </r>
       <r>  -11.6417    1.0000 </r>
       <r>  -11.4356    1.0000 </r>
       <r>  -11.3628    1.0000 </r>
       <r>    0.6927    1.0000 </r>
       <r>    0.9159    1.0000 </r>
       <r>    0.9788    1.0000 </r>
       <r>    1.0227    1.0000 </r>
       <r>    1.7278    1.0000 </r>
       <r>    1.8135    1.0000 </r>
       <r>    2.2281    1.0000 </r>
       <r>    2.8438    1.0000 </r>
       <r>    3.0388    1.0000 </r>
       <r>    3.6797    1.0000 </r>
       <r>    4.2189    1.0000 </r>
       <r>    4.6218    1.0000 </r>
       <r>    7.6115    0.0000 </r>
       <r>    8.0468    0.0000 </r>
       <r>    8.3788    0.0000 </r>
       <r>    8.3919    0.0000 </r>
      </set>
      <set comment="kpoint 35">
       <r>  -51.6058    1.0000 </r>
       <r>  -51.6058    1.0000 </r>
       <r>  -27.9710    1.0000 </r>
       <r>  -27.9710    1.0000 </r>
       <r>  -27.8370    1.0000 </r>
       <r>  -27.8370    1.0000 </r>
       <r>  -27.8058    1.0000 </r>
       <r>  -27.8058    1.0000 </r>
       <r>  -11.8493    1.0000 </r>
       <r>  -11.8493    1.0000 </r>
       <r>  -11.4015    1.0000 </r>
       <r>  -11.4015    1.0000 </r>
       <r>    0.8787    1.0000 </r>
       <r>    0.8787    1.0000 </r>
       <r>    1.0654    1.0000 </r>
       <r>    1.0654    1.0000 </r>
       <r>    1.6419    1.0000 </r>
       <r>    1.6419    1.0000 </r>
       <r>    2.5274    1.0000 </r>
       <r>    2.5274    1.0000 </r>
       <r>    3.2902    1.0000 </r>
       <r>    3.2902    1.0000 </r>
       <r>    4.4452    1.0000 </r>
       <r>    4.4452    1.0000 </r>
       <r>    7.8326    0.0000 </r>
       <r>    7.8326    0.0000 </r>
       <r>    8.4653    0.0000 </r>
       <r>    8.4653    0.0000 </r>
      </set>
      <set comment="kpoint 36">
       <r>  -51.6112    1.0000 </r>
       <r>  -51.6005    1.0000 </r>
       <r>  -27.9695    1.0000 </r>
       <r>  -27.9481    1.0000 </r>
       <r>  -27.8879    1.0000 </r>
       <r>  -27.8642    1.0000 </r>
       <r>  -27.7844    1.0000 </r>
       <r>  -27.7704    1.0000 </r>
       <r>  -12.2965    1.0000 </r>
       <r>  -11.4771    1.0000 </r>
       <r>  -11.3745    1.0000 </r>
       <r>  -11.3081    1.0000 </r>
       <r>    0.3194    1.0000 </r>
       <r>    0.6549    1.0000 </r>
       <r>    0.8255    1.0000 </r>
       <r>    1.1913    1.0000 </r>
       <r>    1.5169    1.0000 </r>
       <r>    1.8665    1.0000 </r>
       <r>    2.4992    1.0000 </r>
       <r>    3.2252    1.0000 </r>
       <r>    3.4963    1.0000 </r>
       <r>    3.7331    1.0000 </r>
       <r>    3.9698    1.0000 </r>
       <r>    4.8079    1.0000 </r>
       <r>    7.4496    0.0000 </r>
       <r>    7.9155    0.0000 </r>
       <r>    8.2147    0.0000 </r>
       <r>    8.3989    0.0000 </r>
      </set>
      <set comment="kpoint 37">
       <r>  -51.6099    1.0000 </r>
       <r>  -51.6017    1.0000 </r>
       <r>  -27.9720    1.0000 </r>
       <r>  -27.9541    1.0000 </r>
       <r>  -27.8831    1.0000 </r>
       <r>  -27.8456    1.0000 </r>
       <r>  -27.7984    1.0000 </r>
       <r>  -27.7729    1.0000 </r>
       <r>  -12.1923    1.0000 </r>
       <r>  -11.4964    1.0000 </r>
       <r>  -11.4526    1.0000 </r>
       <r>  -11.3317    1.0000 </r>
       <r>    0.3855    1.0000 </r>
       <r>    0.7716    1.0000 </r>
       <r>    0.8694    1.0000 </r>
       <r>    1.1536    1.0000 </r>
       <r>    1.7379    1.0000 </r>
       <r>    1.8711    1.0000 </r>
       <r>    2.2882    1.0000 </r>
       <r>    2.9716    1.0000 </r>
       <r>    3.4167    1.0000 </r>
       <r>    3.7305    1.0000 </r>
       <r>    4.0613    1.0000 </r>
       <r>    4.7386    1.0000 </r>
       <r>    7.4730    0.0000 </r>
       <r>    8.0002    0.0000 </r>
       <r>    8.2196    0.0000 </r>
       <r>    8.4530    0.0000 </r>
      </set>
      <set comment="kpoint 38">
       <r>  -51.6080    1.0000 </r>
       <r>  -51.6036    1.0000 </r>
       <r>  -27.9725    1.0000 </r>
       <r>  -27.9623    1.0000 </r>
       <r>  -27.8687    1.0000 </r>
       <r>  -27.8364    1.0000 </r>
       <r>  -27.8061    1.0000 </r>
       <r>  -27.7816    1.0000 </r>
       <r>  -12.0347    1.0000 </r>
       <r>  -11.6555    1.0000 </r>
       <r>  -11.4339    1.0000 </r>
       <r>  -11.3656    1.0000 </r>
       <r>    0.5622    1.0000 </r>
       <r>    0.7928    1.0000 </r>
       <r>    0.9585    1.0000 </r>
       <r>    1.0826    1.0000 </r>
       <r>    1.6339    1.0000 </r>
       <r>    2.0620    1.0000 </r>
       <r>    2.2909    1.0000 </r>
       <r>    2.9004    1.0000 </r>
       <r>    3.1593    1.0000 </r>
       <r>    3.6486    1.0000 </r>
       <r>    4.1735    1.0000 </r>
       <r>    4.5791    1.0000 </r>
       <r>    7.6312    0.0000 </r>
       <r>    8.0487    0.0000 </r>
       <r>    8.2186    0.0000 </r>
       <r>    8.4856    0.0000 </r>
      </set>
      <set comment="kpoint 39">
       <r>  -51.6058    1.0000 </r>
       <r>  -51.6058    1.0000 </r>
       <r>  -27.9691    1.0000 </r>
       <r>  -27.9691    1.0000 </r>
       <r>  -27.8501    1.0000 </r>
       <r>  -27.8501    1.0000 </r>
       <r>  -27.7949    1.0000 </r>
       <r>  -27.7949    1.0000 </r>
       <r>  -11.8464    1.0000 </r>
       <r>  -11.8464    1.0000 </r>
       <r>  -11.4019    1.0000 </r>
       <r>  -11.4019    1.0000 </r>
       <r>    0.7912    1.0000 </r>
       <r>    0.7912    1.0000 </r>
       <r>    0.9259    1.0000 </r>
       <r>    0.9259    1.0000 </r>
       <r>    1.8012    1.0000 </r>
       <r>    1.8012    1.0000 </r>
       <r>    2.6754    1.0000 </r>
       <r>    2.6754    1.0000 </r>
       <r>    3.3115    1.0000 </r>
       <r>    3.3115    1.0000 </r>
       <r>    4.3809    1.0000 </r>
       <r>    4.3809    1.0000 </r>
       <r>    7.8583    0.0000 </r>
       <r>    7.8583    0.0000 </r>
       <r>    8.3937    0.0000 </r>
       <r>    8.3937    0.0000 </r>
      </set>
      <set comment="kpoint 40">
       <r>  -51.6089    1.0000 </r>
       <r>  -51.6027    1.0000 </r>
       <r>  -27.9707    1.0000 </r>
       <r>  -27.9545    1.0000 </r>
       <r>  -27.8914    1.0000 </r>
       <r>  -27.8365    1.0000 </r>
       <r>  -27.8059    1.0000 </r>
       <r>  -27.7684    1.0000 </r>
       <r>  -12.1089    1.0000 </r>
       <r>  -11.5742    1.0000 </r>
       <r>  -11.4463    1.0000 </r>
       <r>  -11.3484    1.0000 </r>
       <r>    0.3259    1.0000 </r>
       <r>    0.6868    1.0000 </r>
       <r>    0.9333    1.0000 </r>
       <r>    1.1365    1.0000 </r>
       <r>    1.6551    1.0000 </r>
       <r>    2.1170    1.0000 </r>
       <r>    2.4269    1.0000 </r>
       <r>    2.8927    1.0000 </r>
       <r>    3.4857    1.0000 </r>
       <r>    3.6508    1.0000 </r>
       <r>    4.0620    1.0000 </r>
       <r>    4.6405    1.0000 </r>
       <r>    7.5402    0.0000 </r>
       <r>    7.9135    0.0000 </r>
       <r>    8.2257    0.0000 </r>
       <r>    8.6024    0.0000 </r>
      </set>
      <set comment="kpoint 41">
       <r>  -51.6074    1.0000 </r>
       <r>  -51.6041    1.0000 </r>
       <r>  -27.9682    1.0000 </r>
       <r>  -27.9583    1.0000 </r>
       <r>  -27.8865    1.0000 </r>
       <r>  -27.8513    1.0000 </r>
       <r>  -27.7936    1.0000 </r>
       <r>  -27.7708    1.0000 </r>
       <r>  -11.9849    1.0000 </r>
       <r>  -11.6955    1.0000 </r>
       <r>  -11.4282    1.0000 </r>
       <r>  -11.3742    1.0000 </r>
       <r>    0.3912    1.0000 </r>
       <r>    0.6748    1.0000 </r>
       <r>    0.8424    1.0000 </r>
       <r>    0.8802    1.0000 </r>
       <r>    1.8469    1.0000 </r>
       <r>    2.3239    1.0000 </r>
       <r>    2.5286    1.0000 </r>
       <r>    3.0401    1.0000 </r>
       <r>    3.3708    1.0000 </r>
       <r>    3.6004    1.0000 </r>
       <r>    4.0410    1.0000 </r>
       <r>    4.4455    1.0000 </r>
       <r>    7.7170    0.0000 </r>
       <r>    7.9656    0.0000 </r>
       <r>    8.1746    0.0000 </r>
       <r>    8.4453    0.0000 </r>
      </set>
      <set comment="kpoint 42">
       <r>  -51.6058    1.0000 </r>
       <r>  -51.6058    1.0000 </r>
       <r>  -27.9639    1.0000 </r>
       <r>  -27.9639    1.0000 </r>
       <r>  -27.8711    1.0000 </r>
       <r>  -27.8711    1.0000 </r>
       <r>  -27.7797    1.0000 </r>
       <r>  -27.7797    1.0000 </r>
       <r>  -11.8396    1.0000 </r>
       <r>  -11.8396    1.0000 </r>
       <r>  -11.4028    1.0000 </r>
       <r>  -11.4028    1.0000 </r>
       <r>    0.5820    1.0000 </r>
       <r>    0.5820    1.0000 </r>
       <r>    0.7442    1.0000 </r>
       <r>    0.7442    1.0000 </r>
       <r>    2.1004    1.0000 </r>
       <r>    2.1004    1.0000 </r>
       <r>    2.9549    1.0000 </r>
       <r>    2.9549    1.0000 </r>
       <r>    3.3923    1.0000 </r>
       <r>    3.3923    1.0000 </r>
       <r>    4.2080    1.0000 </r>
       <r>    4.2080    1.0000 </r>
       <r>    7.9314    0.0000 </r>
       <r>    7.9314    0.0000 </r>
       <r>    8.2268    0.0000 </r>
       <r>    8.2269    0.0000 </r>
      </set>
      <set comment="kpoint 43">
       <r>  -51.6067    1.0000 </r>
       <r>  -51.6048    1.0000 </r>
       <r>  -27.9627    1.0000 </r>
       <r>  -27.9550    1.0000 </r>
       <r>  -27.8950    1.0000 </r>
       <r>  -27.8720    1.0000 </r>
       <r>  -27.7789    1.0000 </r>
       <r>  -27.7665    1.0000 </r>
       <r>  -11.9131    1.0000 </r>
       <r>  -11.7569    1.0000 </r>
       <r>  -11.4179    1.0000 </r>
       <r>  -11.3877    1.0000 </r>
       <r>    0.3235    1.0000 </r>
       <r>    0.5937    1.0000 </r>
       <r>    0.6212    1.0000 </r>
       <r>    0.7211    1.0000 </r>
       <r>    2.1409    1.0000 </r>
       <r>    2.4703    1.0000 </r>
       <r>    2.8121    1.0000 </r>
       <r>    3.2573    1.0000 </r>
       <r>    3.4778    1.0000 </r>
       <r>    3.5821    1.0000 </r>
       <r>    3.8748    1.0000 </r>
       <r>    4.2456    1.0000 </r>
       <r>    7.8838    0.0000 </r>
       <r>    7.9145    0.0000 </r>
       <r>    8.1515    0.0000 </r>
       <r>    8.2900    0.0000 </r>
      </set>
      <set comment="kpoint 44">
       <r>  -51.6057    1.0000 </r>
       <r>  -51.6057    1.0000 </r>
       <r>  -27.9571    1.0000 </r>
       <r>  -27.9571    1.0000 </r>
       <r>  -27.8889    1.0000 </r>
       <r>  -27.8889    1.0000 </r>
       <r>  -27.7693    1.0000 </r>
       <r>  -27.7693    1.0000 </r>
       <r>  -11.8328    1.0000 </r>
       <r>  -11.8328    1.0000 </r>
       <r>  -11.4035    1.0000 </r>
       <r>  -11.4035    1.0000 </r>
       <r>    0.3934    1.0000 </r>
       <r>    0.3934    1.0000 </r>
       <r>    0.6386    1.0000 </r>
       <r>    0.6386    1.0000 </r>
       <r>    2.3701    1.0000 </r>
       <r>    2.3701    1.0000 </r>
       <r>    3.1796    1.0000 </r>
       <r>    3.1796    1.0000 </r>
       <r>    3.5020    1.0000 </r>
       <r>    3.5020    1.0000 </r>
       <r>    4.0030    1.0000 </r>
       <r>    4.0030    1.0000 </r>
       <r>    7.9909    0.0000 </r>
       <r>    7.9909    0.0000 </r>
       <r>    8.1131    0.0000 </r>
       <r>    8.1131    0.0000 </r>
      </set>
      <set comment="kpoint 45">
       <r>  -51.6058    1.0000 </r>
       <r>  -51.6058    1.0000 </r>
       <r>  -27.9534    1.0000 </r>
       <r>  -27.9534    1.0000 </r>
       <r>  -27.8964    1.0000 </r>
       <r>  -27.8964    1.0000 </r>
       <r>  -27.7657    1.0000 </r>
       <r>  -27.7657    1.0000 </r>
       <r>  -11.8300    1.0000 </r>
       <r>  -11.8300    1.0000 </r>
       <r>  -11.4038    1.0000 </r>
       <r>  -11.4038    1.0000 </r>
       <r>    0.3231    1.0000 </r>
       <r>    0.3231    1.0000 </r>
       <r>    0.6032    1.0000 </r>
       <r>    0.6032    1.0000 </r>
       <r>    2.4794    1.0000 </r>
       <r>    2.4794    1.0000 </r>
       <r>    3.3276    1.0000 </r>
       <r>    3.3276    1.0000 </r>
       <r>    3.4762    1.0000 </r>
       <r>    3.4762    1.0000 </r>
       <r>    3.9232    1.0000 </r>
       <r>    3.9232    1.0000 </r>
       <r>    7.9527    0.0000 </r>
       <r>    7.9527    0.0000 </r>
       <r>    8.1543    0.0000 </r>
       <r>    8.1543    0.0000 </r>
      </set>
      <set comment="kpoint 46">
       <r>  -51.5944    1.0000 </r>
       <r>  -51.5879    1.0000 </r>
       <r>  -28.1180    1.0000 </r>
       <r>  -28.1067    1.0000 </r>
       <r>  -27.8351    1.0000 </r>
       <r>  -27.8351    1.0000 </r>
       <r>  -27.7724    1.0000 </r>
       <r>  -27.7724    1.0000 </r>
       <r>  -11.8676    1.0000 </r>
       <r>  -11.4726    1.0000 </r>
       <r>  -11.4726    1.0000 </r>
       <r>  -11.3651    1.0000 </r>
       <r>    0.7574    1.0000 </r>
       <r>    0.7871    1.0000 </r>
       <r>    1.3128    1.0000 </r>
       <r>    1.3128    1.0000 </r>
       <r>    1.4231    1.0000 </r>
       <r>    1.8488    1.0000 </r>
       <r>    1.9613    1.0000 </r>
       <r>    2.9617    1.0000 </r>
       <r>    2.9617    1.0000 </r>
       <r>    3.7824    1.0000 </r>
       <r>    3.7824    1.0000 </r>
       <r>    3.9580    1.0000 </r>
       <r>    7.7687    0.0000 </r>
       <r>    8.1041    0.0000 </r>
       <r>    8.5219    0.0000 </r>
       <r>    8.8041    0.0000 </r>
      </set>
      <set comment="kpoint 47">
       <r>  -51.5943    1.0000 </r>
       <r>  -51.5882    1.0000 </r>
       <r>  -28.1195    1.0000 </r>
       <r>  -28.1090    1.0000 </r>
       <r>  -27.8321    1.0000 </r>
       <r>  -27.8312    1.0000 </r>
       <r>  -27.7744    1.0000 </r>
       <r>  -27.7736    1.0000 </r>
       <r>  -11.8739    1.0000 </r>
       <r>  -11.5487    1.0000 </r>
       <r>  -11.4462    1.0000 </r>
       <r>  -11.3064    1.0000 </r>
       <r>    0.7734    1.0000 </r>
       <r>    0.8143    1.0000 </r>
       <r>    0.9601    1.0000 </r>
       <r>    1.2604    1.0000 </r>
       <r>    1.6743    1.0000 </r>
       <r>    1.8290    1.0000 </r>
       <r>    2.1017    1.0000 </r>
       <r>    2.9369    1.0000 </r>
       <r>    3.0572    1.0000 </r>
       <r>    3.7128    1.0000 </r>
[...]
       <r>    1.0714    1.0000 </r>
       <r>    1.0714    1.0000 </r>
       <r>    1.7912    1.0000 </r>
       <r>    1.7912    1.0000 </r>
       <r>    2.6275    1.0000 </r>
       <r>    2.6275    1.0000 </r>
       <r>    3.7438    1.0000 </r>
       <r>    3.7438    1.0000 </r>
       <r>    4.4071    1.0000 </r>
       <r>    4.4071    1.0000 </r>
       <r>    7.4569    0.0000 </r>
       <r>    7.4569    0.0000 </r>
       <r>    8.4900    0.0000 </r>
       <r>    8.4904    0.0000 </r>
      </set>
      <set comment="kpoint 73">
       <r>  -51.5853    1.0000 </r>
       <r>  -51.5852    1.0000 </r>
       <r>  -28.1815    1.0000 </r>
       <r>  -28.1767    1.0000 </r>
       <r>  -27.8053    1.0000 </r>
       <r>  -27.7993    1.0000 </r>
       <r>  -27.7846    1.0000 </r>
       <r>  -27.7839    1.0000 </r>
       <r>  -11.7864    1.0000 </r>
       <r>  -11.6284    1.0000 </r>
       <r>  -11.3841    1.0000 </r>
       <r>  -11.2176    1.0000 </r>
       <r>    0.2396    1.0000 </r>
       <r>    0.6001    1.0000 </r>
       <r>    0.7737    1.0000 </r>
       <r>    0.9705    1.0000 </r>
       <r>    1.5319    1.0000 </r>
       <r>    1.9949    1.0000 </r>
       <r>    2.5202    1.0000 </r>
       <r>    2.6093    1.0000 </r>
       <r>    3.8058    1.0000 </r>
       <r>    3.9464    1.0000 </r>
       <r>    4.3823    1.0000 </r>
       <r>    4.5384    1.0000 </r>
       <r>    7.4692    0.0000 </r>
       <r>    7.9468    0.0000 </r>
       <r>    8.4371    0.0000 </r>
       <r>    8.5040    0.0000 </r>
      </set>
      <set comment="kpoint 74">
       <r>  -51.5853    1.0000 </r>
       <r>  -51.5853    1.0000 </r>
       <r>  -28.1778    1.0000 </r>
       <r>  -28.1778    1.0000 </r>
       <r>  -27.8037    1.0000 </r>
       <r>  -27.8037    1.0000 </r>
       <r>  -27.7845    1.0000 </r>
       <r>  -27.7845    1.0000 </r>
       <r>  -11.6942    1.0000 </r>
       <r>  -11.6942    1.0000 </r>
       <r>  -11.3141    1.0000 </r>
       <r>  -11.3141    1.0000 </r>
       <r>    0.3954    1.0000 </r>
       <r>    0.3954    1.0000 </r>
       <r>    0.8514    1.0000 </r>
       <r>    0.8514    1.0000 </r>
       <r>    1.7323    1.0000 </r>
       <r>    1.7323    1.0000 </r>
       <r>    2.5545    1.0000 </r>
       <r>    2.5545    1.0000 </r>
       <r>    3.9220    1.0000 </r>
       <r>    3.9220    1.0000 </r>
       <r>    4.5542    1.0000 </r>
       <r>    4.5542    1.0000 </r>
       <r>    7.7227    0.0000 </r>
       <r>    7.7227    0.0000 </r>
       <r>    8.5037    0.0000 </r>
       <r>    8.5473    0.0000 </r>
      </set>
      <set comment="kpoint 75">
       <r>  -51.5853    1.0000 </r>
       <r>  -51.5853    1.0000 </r>
       <r>  -28.1759    1.0000 </r>
       <r>  -28.1759    1.0000 </r>
       <r>  -27.8057    1.0000 </r>
       <r>  -27.8057    1.0000 </r>
       <r>  -27.7849    1.0000 </r>
       <r>  -27.7849    1.0000 </r>
       <r>  -11.6420    1.0000 </r>
       <r>  -11.6420    1.0000 </r>
       <r>  -11.3669    1.0000 </r>
       <r>  -11.3669    1.0000 </r>
       <r>    0.5175    1.0000 </r>
       <r>    0.5175    1.0000 </r>
       <r>    0.6802    1.0000 </r>
       <r>    0.6802    1.0000 </r>
       <r>    1.7224    1.0000 </r>
       <r>    1.7224    1.0000 </r>
       <r>    2.5281    1.0000 </r>
       <r>    2.5281    1.0000 </r>
       <r>    3.9792    1.0000 </r>
       <r>    3.9792    1.0000 </r>
       <r>    4.6208    1.0000 </r>
       <r>    4.6208    1.0000 </r>
       <r>    7.8943    0.0000 </r>
       <r>    7.8943    0.0000 </r>
       <r>    8.4868    0.0000 </r>
       <r>    8.4869    0.0000 </r>
      </set>
     </set>
    </set>
   </array>
  </eigenvalues>
  <separator name="orbital magnetization" >
   <v name="MAGDIPOLOUT">      0.00000000      0.00000000      0.00000000</v>
  </separator>
  <dos>
   <i name="efermi">      5.53455234 </i>
   <total>
    <array>
     <dimension dim="1">gridpoints</dimension>
     <dimension dim="2">spin</dimension>
     <field>energy</field>
     <field>total</field>
     <field>integrated</field>
     <set>
      <set comment="spin 1">
       <r>   -54.6864     0.0000     0.0000 </r>
       <r>   -54.4626     0.0000     0.0000 </r>
       <r>   -54.2389     0.0000     0.0000 </r>
       <r>   -54.0151     0.0000     0.0000 </r>
       <r>   -53.7913     0.0000     0.0000 </r>
       <r>   -53.5676     0.0000     0.0000 </r>
       <r>   -53.3438     0.0000     0.0000 </r>
       <r>   -53.1200     0.0000     0.0000 </r>
       <r>   -52.8963     0.0000     0.0000 </r>
       <r>   -52.6725     0.0000     0.0000 </r>
       <r>   -52.4487     0.0000     0.0000 </r>
       <r>   -52.2250     0.0000     0.0000 </r>
       <r>   -52.0012     0.0000     0.0000 </r>
       <r>   -51.7775     0.0000     0.0000 </r>
       <r>   -51.5537    17.7187     4.0000 </r>
       <r>   -51.3299     0.0000     4.0000 </r>
       <r>   -51.1062     0.0000     4.0000 </r>
       <r>   -50.8824     0.0000     4.0000 </r>
       <r>   -50.6586     0.0000     4.0000 </r>
       <r>   -50.4349     0.0000     4.0000 </r>
       <r>   -50.2111     0.0000     4.0000 </r>
       <r>   -49.9873     0.0000     4.0000 </r>
       <r>   -49.7636     0.0000     4.0000 </r>
       <r>   -49.5398     0.0000     4.0000 </r>
       <r>   -49.3160     0.0000     4.0000 </r>
       <r>   -49.0923     0.0000     4.0000 </r>
       <r>   -48.8685     0.0000     4.0000 </r>
       <r>   -48.6447     0.0000     4.0000 </r>
       <r>   -48.4210     0.0000     4.0000 </r>
       <r>   -48.1972     0.0000     4.0000 </r>
       <r>   -47.9734     0.0000     4.0000 </r>
       <r>   -47.7497     0.0000     4.0000 </r>
       <r>   -47.5259     0.0000     4.0000 </r>
       <r>   -47.3021     0.0000     4.0000 </r>
       <r>   -47.0784     0.0000     4.0000 </r>
       <r>   -46.8546     0.0000     4.0000 </r>
       <r>   -46.6308     0.0000     4.0000 </r>
       <r>   -46.4071     0.0000     4.0000 </r>
       <r>   -46.1833     0.0000     4.0000 </r>
       <r>   -45.9595     0.0000     4.0000 </r>
       <r>   -45.7358     0.0000     4.0000 </r>
       <r>   -45.5120     0.0000     4.0000 </r>
       <r>   -45.2882     0.0000     4.0000 </r>
       <r>   -45.0645     0.0000     4.0000 </r>
       <r>   -44.8407     0.0000     4.0000 </r>
       <r>   -44.6169     0.0000     4.0000 </r>
       <r>   -44.3932     0.0000     4.0000 </r>
       <r>   -44.1694     0.0000     4.0000 </r>
       <r>   -43.9456     0.0000     4.0000 </r>
       <r>   -43.7219     0.0000     4.0000 </r>
       <r>   -43.4981     0.0000     4.0000 </r>
       <r>   -43.2744     0.0000     4.0000 </r>
       <r>   -43.0506     0.0000     4.0000 </r>
       <r>   -42.8268     0.0000     4.0000 </r>
       <r>   -42.6031     0.0000     4.0000 </r>
       <r>   -42.3793     0.0000     4.0000 </r>
       <r>   -42.1555     0.0000     4.0000 </r>
       <r>   -41.9318     0.0000     4.0000 </r>
       <r>   -41.7080     0.0000     4.0000 </r>
       <r>   -41.4842     0.0000     4.0000 </r>
       <r>   -41.2605     0.0000     4.0000 </r>
       <r>   -41.0367     0.0000     4.0000 </r>
       <r>   -40.8129     0.0000     4.0000 </r>
       <r>   -40.5892     0.0000     4.0000 </r>
       <r>   -40.3654     0.0000     4.0000 </r>
       <r>   -40.1416     0.0000     4.0000 </r>
       <r>   -39.9179     0.0000     4.0000 </r>
       <r>   -39.6941     0.0000     4.0000 </r>
       <r>   -39.4703     0.0000     4.0000 </r>
       <r>   -39.2466     0.0000     4.0000 </r>
       <r>   -39.0228     0.0000     4.0000 </r>
       <r>   -38.7990     0.0000     4.0000 </r>
       <r>   -38.5753     0.0000     4.0000 </r>
       <r>   -38.3515     0.0000     4.0000 </r>
       <r>   -38.1277     0.0000     4.0000 </r>
       <r>   -37.9040     0.0000     4.0000 </r>
       <r>   -37.6802     0.0000     4.0000 </r>
       <r>   -37.4564     0.0000     4.0000 </r>
       <r>   -37.2327     0.0000     4.0000 </r>
       <r>   -37.0089     0.0000     4.0000 </r>
       <r>   -36.7851     0.0000     4.0000 </r>
       <r>   -36.5614     0.0000     4.0000 </r>
       <r>   -36.3376     0.0000     4.0000 </r>
       <r>   -36.1138     0.0000     4.0000 </r>
       <r>   -35.8901     0.0000     4.0000 </r>
       <r>   -35.6663     0.0000     4.0000 </r>
       <r>   -35.4426     0.0000     4.0000 </r>
       <r>   -35.2188     0.0000     4.0000 </r>
       <r>   -34.9950     0.0000     4.0000 </r>
       <r>   -34.7713     0.0000     4.0000 </r>
       <r>   -34.5475     0.0000     4.0000 </r>
       <r>   -34.3237     0.0000     4.0000 </r>
       <r>   -34.1000     0.0000     4.0000 </r>
       <r>   -33.8762     0.0000     4.0000 </r>
       <r>   -33.6524     0.0000     4.0000 </r>
       <r>   -33.4287     0.0000     4.0000 </r>
       <r>   -33.2049     0.0000     4.0000 </r>
       <r>   -32.9811     0.0000     4.0000 </r>
       <r>   -32.7574     0.0000     4.0000 </r>
       <r>   -32.5336     0.0000     4.0000 </r>
       <r>   -32.3098     0.0000     4.0000 </r>
       <r>   -32.0861     0.0000     4.0000 </r>
       <r>   -31.8623     0.0000     4.0000 </r>
       <r>   -31.6385     0.0000     4.0000 </r>
       <r>   -31.4148     0.0000     4.0000 </r>
       <r>   -31.1910     0.0000     4.0000 </r>
       <r>   -30.9672     0.0000     4.0000 </r>
       <r>   -30.7435     0.0000     4.0000 </r>
       <r>   -30.5197     0.0000     4.0000 </r>
       <r>   -30.2959     0.0000     4.0000 </r>
       <r>   -30.0722     0.0000     4.0000 </r>
       <r>   -29.8484     0.0000     4.0000 </r>
       <r>   -29.6246     0.0000     4.0000 </r>
       <r>   -29.4009     0.0000     4.0000 </r>
       <r>   -29.1771     0.0000     4.0000 </r>
       <r>   -28.9533     0.0000     4.0000 </r>
       <r>   -28.7296     0.0000     4.0000 </r>
       <r>   -28.5058     0.0000     4.0000 </r>
       <r>   -28.2820     0.0000     4.0000 </r>
       <r>   -28.0583     4.4690     5.5000 </r>
       <r>   -27.8345     9.2957     9.4238 </r>
       <r>   -27.6107     0.0000    16.0000 </r>
       <r>   -27.3870     0.0000    16.0000 </r>
       <r>   -27.1632     0.0000    16.0000 </r>
       <r>   -26.9395     0.0000    16.0000 </r>
       <r>   -26.7157     0.0000    16.0000 </r>
       <r>   -26.4919     0.0000    16.0000 </r>
       <r>   -26.2682     0.0000    16.0000 </r>
       <r>   -26.0444     0.0000    16.0000 </r>
       <r>   -25.8206     0.0000    16.0000 </r>
       <r>   -25.5969     0.0000    16.0000 </r>
       <r>   -25.3731     0.0000    16.0000 </r>
       <r>   -25.1493     0.0000    16.0000 </r>
       <r>   -24.9256     0.0000    16.0000 </r>
       <r>   -24.7018     0.0000    16.0000 </r>
       <r>   -24.4780     0.0000    16.0000 </r>
       <r>   -24.2543     0.0000    16.0000 </r>
       <r>   -24.0305     0.0000    16.0000 </r>
       <r>   -23.8067     0.0000    16.0000 </r>
       <r>   -23.5830     0.0000    16.0000 </r>
       <r>   -23.3592     0.0000    16.0000 </r>
       <r>   -23.1354     0.0000    16.0000 </r>
       <r>   -22.9117     0.0000    16.0000 </r>
       <r>   -22.6879     0.0000    16.0000 </r>
       <r>   -22.4641     0.0000    16.0000 </r>
       <r>   -22.2404     0.0000    16.0000 </r>
       <r>   -22.0166     0.0000    16.0000 </r>
       <r>   -21.7928     0.0000    16.0000 </r>
       <r>   -21.5691     0.0000    16.0000 </r>
       <r>   -21.3453     0.0000    16.0000 </r>
       <r>   -21.1215     0.0000    16.0000 </r>
       <r>   -20.8978     0.0000    16.0000 </r>
       <r>   -20.6740     0.0000    16.0000 </r>
       <r>   -20.4502     0.0000    16.0000 </r>
       <r>   -20.2265     0.0000    16.0000 </r>
       <r>   -20.0027     0.0000    16.0000 </r>
       <r>   -19.7789     0.0000    16.0000 </r>
       <r>   -19.5552     0.0000    16.0000 </r>
       <r>   -19.3314     0.0000    16.0000 </r>
       <r>   -19.1077     0.0000    16.0000 </r>
       <r>   -18.8839     0.0000    16.0000 </r>
       <r>   -18.6601     0.0000    16.0000 </r>
       <r>   -18.4364     0.0000    16.0000 </r>
       <r>   -18.2126     0.0000    16.0000 </r>
       <r>   -17.9888     0.0000    16.0000 </r>
       <r>   -17.7651     0.0000    16.0000 </r>
       <r>   -17.5413     0.0000    16.0000 </r>
       <r>   -17.3175     0.0000    16.0000 </r>
       <r>   -17.0938     0.0000    16.0000 </r>
       <r>   -16.8700     0.0000    16.0000 </r>
       <r>   -16.6462     0.0000    16.0000 </r>
       <r>   -16.4225     0.0000    16.0000 </r>
       <r>   -16.1987     0.0000    16.0000 </r>
       <r>   -15.9749     0.0000    16.0000 </r>
       <r>   -15.7512     0.0000    16.0000 </r>
       <r>   -15.5274     0.0000    16.0000 </r>
       <r>   -15.3036     0.0000    16.0000 </r>
       <r>   -15.0799     0.0000    16.0000 </r>
       <r>   -14.8561     0.0000    16.0000 </r>
       <r>   -14.6323     0.0000    16.0000 </r>
       <r>   -14.4086     0.0000    16.0000 </r>
       <r>   -14.1848     0.0000    16.0000 </r>
       <r>   -13.9610     0.0000    16.0000 </r>
       <r>   -13.7373     0.0000    16.0000 </r>
       <r>   -13.5135     0.0000    16.0000 </r>
       <r>   -13.2897     0.0000    16.0000 </r>
       <r>   -13.0660     0.0000    16.0000 </r>
       <r>   -12.8422     0.1145    16.0295 </r>
       <r>   -12.6184     0.2793    16.1523 </r>
       <r>   -12.3947     0.2793    16.3711 </r>
       <r>   -12.1709     0.9085    16.8556 </r>
       <r>   -11.9471     0.4267    17.3884 </r>
       <r>   -11.7234     1.8052    18.9079 </r>
       <r>   -11.4996     1.3046    19.9247 </r>
       <r>   -11.2758     4.3516    22.3644 </r>
       <r>   -11.0521     0.9899    23.9793 </r>
       <r>   -10.8283     0.0000    24.0000 </r>
       <r>   -10.6046     0.0000    24.0000 </r>
       <r>   -10.3808     0.0000    24.0000 </r>
       <r>   -10.1570     0.0000    24.0000 </r>
       <r>    -9.9333     0.0000    24.0000 </r>
       <r>    -9.7095     0.0000    24.0000 </r>
       <r>    -9.4857     0.0000    24.0000 </r>
       <r>    -9.2620     0.0000    24.0000 </r>
       <r>    -9.0382     0.0000    24.0000 </r>
       <r>    -8.8144     0.0000    24.0000 </r>
       <r>    -8.5907     0.0000    24.0000 </r>
       <r>    -8.3669     0.0000    24.0000 </r>
       <r>    -8.1431     0.0000    24.0000 </r>
       <r>    -7.9194     0.0000    24.0000 </r>
       <r>    -7.6956     0.0000    24.0000 </r>
       <r>    -7.4718     0.0000    24.0000 </r>
       <r>    -7.2481     0.0000    24.0000 </r>
       <r>    -7.0243     0.0000    24.0000 </r>
       <r>    -6.8005     0.0000    24.0000 </r>
       <r>    -6.5768     0.0000    24.0000 </r>
       <r>    -6.3530     0.0000    24.0000 </r>
       <r>    -6.1292     0.0000    24.0000 </r>
       <r>    -5.9055     0.0000    24.0000 </r>
       <r>    -5.6817     0.0000    24.0000 </r>
       <r>    -5.4579     0.0000    24.0000 </r>
       <r>    -5.2342     0.0000    24.0000 </r>
       <r>    -5.0104     0.0000    24.0000 </r>
       <r>    -4.7866     0.0000    24.0000 </r>
       <r>    -4.5629     0.0000    24.0000 </r>
       <r>    -4.3391     0.0000    24.0000 </r>
       <r>    -4.1153     0.0000    24.0000 </r>
       <r>    -3.8916     0.0000    24.0000 </r>
       <r>    -3.6678     0.0000    24.0000 </r>
       <r>    -3.4440     0.0000    24.0000 </r>
       <r>    -3.2203     0.0000    24.0000 </r>
       <r>    -2.9965     0.0000    24.0000 </r>
       <r>    -2.7728     0.0000    24.0000 </r>
       <r>    -2.5490     0.0000    24.0000 </r>
       <r>    -2.3252     0.0000    24.0000 </r>
       <r>    -2.1015     0.0000    24.0000 </r>
       <r>    -1.8777     0.0000    24.0000 </r>
       <r>    -1.6539     0.0000    24.0000 </r>
       <r>    -1.4302     0.0000    24.0000 </r>
       <r>    -1.2064     0.0000    24.0000 </r>
       <r>    -0.9826     0.0000    24.0000 </r>
       <r>    -0.7589     0.0000    24.0000 </r>
       <r>    -0.5351     0.0004    24.0001 </r>
       <r>    -0.3113     0.1151    24.0453 </r>
       <r>    -0.0876     0.4366    24.3360 </r>
       <r>     0.1362     0.2658    24.7079 </r>
       <r>     0.3600     1.3331    25.4936 </r>
       <r>     0.5837     1.7633    26.9219 </r>
       <r>     0.8075     3.1912    28.4289 </r>
       <r>     1.0313     1.9016    29.8513 </r>
       <r>     1.2550     2.5256    31.4206 </r>
       <r>     1.4788     2.1272    32.2924 </r>
       <r>     1.7026     1.3023    33.1000 </r>
       <r>     1.9263     1.6917    34.1090 </r>
       <r>     2.1501     1.6013    34.8466 </r>
       <r>     2.3739     1.4525    35.7039 </r>
       <r>     2.5976     2.1171    36.7745 </r>
       <r>     2.8214     2.3858    38.1003 </r>
       <r>     3.0452     2.2086    39.4434 </r>
       <r>     3.2689     1.2860    40.3854 </r>
       <r>     3.4927     2.3338    41.8113 </r>
       <r>     3.7165     1.9546    42.8671 </r>
       <r>     3.9402     1.4660    44.1327 </r>
       <r>     4.1640     1.9186    45.2106 </r>
       <r>     4.3878     1.7108    46.2813 </r>
       <r>     4.6115     0.8275    47.2711 </r>
       <r>     4.8353     0.6955    47.7377 </r>
       <r>     5.0591     0.2893    47.8811 </r>
       <r>     5.2828     0.1048    47.9961 </r>
       <r>     5.5066     0.0000    48.0000 </r>
       <r>     5.7303     0.0000    48.0000 </r>
       <r>     5.9541     0.0000    48.0000 </r>
       <r>     6.1779     0.0000    48.0000 </r>
       <r>     6.4016     0.0000    48.0000 </r>
       <r>     6.6254     0.0000    48.0000 </r>
       <r>     6.8492     0.0000    48.0000 </r>
       <r>     7.0729     0.0000    48.0000 </r>
       <r>     7.2967     0.4968    48.1854 </r>
       <r>     7.5205     1.7639    49.0510 </r>
       <r>     7.7442     1.3929    50.1086 </r>
       <r>     7.9680     3.2522    51.8215 </r>
       <r>     8.1918     2.0758    53.0739 </r>
       <r>     8.4155     2.4759    54.6399 </r>
       <r>     8.6393     0.2095    55.9844 </r>
       <r>     8.8631     0.0349    55.9922 </r>
       <r>     9.0868     0.0000    55.9922 </r>
       <r>     9.3106     0.0000    55.9922 </r>
       <r>     9.5344     0.0000    56.0000 </r>
       <r>     9.7581     0.0000    56.0000 </r>
       <r>     9.9819     0.0000    56.0000 </r>
       <r>    10.2057     0.0000    56.0000 </r>
       <r>    10.4294     0.0000    56.0000 </r>
       <r>    10.6532     0.0000    56.0000 </r>
       <r>    10.8770     0.0000    56.0000 </r>
       <r>    11.1007     0.0000    56.0000 </r>
       <r>    11.3245     0.0000    56.0000 </r>
       <r>    11.5483     0.0000    56.0000 </r>
       <r>    11.7720     0.0000    56.0000 </r>
       <r>    11.9958     0.0000    56.0000 </r>
       <r>    12.2196     0.0000    56.0000 </r>
       <r>    12.4433     0.0000    56.0000 </r>
      </set>
     </set>
    </array>
   </total>
  </dos>
 </calculation>
 <structure name="finalpos" >
  <crystal>
   <varray name="basis" >
    <v>       4.58400000       0.00000000       0.00000000 </v>
    <v>       0.00000000       4.58400000       0.00000000 </v>
    <v>       0.00000000       0.00000000       2.95300000 </v>
   </varray>
   <i name="volume">     62.05155437 </i>
   <varray name="rec_basis" >
    <v>       0.21815009       0.00000000       0.00000000 </v>
    <v>       0.00000000       0.21815009       0.00000000 </v>
    <v>       0.00000000       0.00000000       0.33863867 </v>
   </varray>
  </crystal>
  <varray name="positions" >
   <v>       0.00000000       0.00000000       0.00000000 </v>
   <v>       0.50000000       0.50000000       0.50000000 </v>
   <v>       0.19620933       0.80379067       0.50000000 </v>
   <v>       0.80379067       0.19620933       0.50000000 </v>
   <v>       0.30379067       0.30379067       0.00000000 </v>
   <v>       0.69620933       0.69620933       0.00000000 </v>
  </varray>
 </structure>
</modeling>
