TiO2                                    
           1
     4.584000    0.000000    0.000000
     0.000000    4.584000    0.000000
     0.000000    0.000000    2.953000
   Ti   O 
     2     4
Direct configuration=     1
   0.00000000  0.00000000  0.00000000
   0.50000000  0.50000000  0.50000000
   0.19620933  0.80379067  0.50000000
   0.80379067  0.19620933  0.50000000
   0.30379067  0.30379067  0.00000000
   0.69620933  0.69620933  0.00000000
