 vasp.6.2.0 18Jan21 (build Oct 14 2021 17:49:53) complex                        
  
 executed on             LinuxIFC date 2022.04.02  12:44:30
 running on    4 total cores
 distrk:  each k-point on    4 cores,    1 groups
 distr:  one band on NCORE=   1 cores,    4 groups


--------------------------------------------------------------------------------------------------------


 INCAR:
   SYSTEM = TiO2
   ISTART = 0
   ICHARG = 0
   ISMEAR = 0
   SIGMA = 0.01
   LOUT = 10
   ENCUT = 420
   EDIFF = 0.1E-04
   LDAU = .TRUE.
   LDAUTYPE = 2
   LDAUL = 2 -1
   LDAUU = 3.90 0.00
   LDAUJ = 0.00 0.00
   LDAUPRINT = 2
   LMAXMIX = 4

 POTCAR:    PAW_PBE Ti_sv 26Sep2005               
 POTCAR:   PAW_PBE O_s 07Sep2000                  
 POTCAR:    PAW_PBE Ti_sv 26Sep2005               
   SHA256 =  4d747badb5a5ea28d858fbac70885b3f8929d6fd9e5b0dbe1ecb9878dc164da1 Ti_sv/POTCAR          
   COPYR  = (c) Copyright 26Sep2005 Georg Kresse                                                    
   COPYR  = This file is part of the software VASP. Any use, copying, and all other rights are regul
   COPYR  = If you do not have a valid VASP license, you may not use, copy or distribute this file. 
   VRHFIN =Ti: 3p4s3d                                                                               
   LEXCH  = PE                                                                                      
   EATOM  =  1588.0892 eV,  116.7213 Ry                                                             
                                                                                                    
   TITEL  = PAW_PBE Ti_sv 26Sep2005                                                                 
   LULTRA =        F    use ultrasoft PP ?                                                          
   IUNSCR =        1    unscreen: 0-lin 1-nonlin 2-no                                               
   RPACOR =    2.000    partial core radius                                                         
   POMASS =   47.880; ZVAL   =   12.000    mass and valenz                                          
   RCORE  =    2.300    outmost cutoff radius                                                       
   RWIGS  =    2.300; RWIGS  =    1.217    wigner-seitz radius (au A)                               
   ENMAX  =  274.610; ENMIN  =  205.957 eV                                                          
   ICORE  =        3    local potential                                                             
   LCOR   =        T    correct aug charges                                                         
   LPAW   =        T    paw PP                                                                      
   EAUG   =  482.848                                                                                
   RMAX   =    2.348    core radius for proj-oper                                                   
   RAUG   =    1.300    factor for augmentation sphere                                              
   RDEP   =    2.381    radius for radial grids                                                     
   RDEPT  =    1.930    core radius for aug-charge                                                  
                                                                                                    
   Atomic configuration                                                                             
    8 entries                                                                                       
     n  l   j            E        occ.                                                              
     1  0  0.50     -4865.3608   2.0000                                                             
     2  0  0.50      -533.1368   2.0000                                                             
     2  1  1.50      -440.5031   6.0000                                                             
     3  0  0.50       -59.3186   2.0000                                                             
     4  0  0.50        -3.7291   1.0000                                                             
     3  1  1.50       -35.7012   6.0000                                                             
     3  2  2.50        -1.9157   3.0000                                                             
     4  3  2.50        -1.3606   0.0000                                                             
   Description                                                                                      
     l       E           TYP  RCUT    TYP  RCUT                                                     
     0    -59.3185931     23  1.800                                                                 
     0     -3.7290822     23  2.300                                                                 
     1    -35.7012045     23  2.300                                                                 
     1     -1.3605826     23  2.300                                                                 
     2     -1.9156920     23  2.300                                                                 
     2     -0.0236318     23  2.300                                                                 
     3     -1.3605826     23  2.300                                                                 
  local pseudopotential read in
  partial core-charges read in
  partial kinetic energy density read in
  atomic valenz-charges read in
  non local Contribution for L=           0  read in
    real space projection operators read in
  non local Contribution for L=           0  read in
    real space projection operators read in
  non local Contribution for L=           1  read in
    real space projection operators read in
  non local Contribution for L=           1  read in
    real space projection operators read in
  non local Contribution for L=           2  read in
    real space projection operators read in
  non local Contribution for L=           2  read in
    real space projection operators read in
    PAW grid and wavefunctions read in
 
   number of l-projection  operators is LMAX  =           6
   number of lm-projection operators is LMMAX =          18
 
 POTCAR:   PAW_PBE O_s 07Sep2000                  
   SHA256 =  e7f4e16ee7752e7dead62f07b2b95b8f91122148deae9dd89b96c576b0e91599 O_s/POTCAR            
   COPYR  = (c) Copyright 07Sep2000 Georg Kresse                                                    
   COPYR  = This file is part of the software VASP. Any use, copying, and all other rights are regul
   COPYR  = If you do not have a valid VASP license, you may not use, copy or distribute this file. 
   VRHFIN =O: s2p4                                                                                  
   LEXCH  = PE                                                                                      
   EATOM  =   432.3788 eV,   31.7789 Ry                                                             
                                                                                                    
   TITEL  = PAW_PBE O_s 07Sep2000                                                                   
   LULTRA =        F    use ultrasoft PP ?                                                          
   IUNSCR =        0    unscreen: 0-lin 1-nonlin 2-no                                               
   RPACOR =    0.000    partial core radius                                                         
   POMASS =   16.000; ZVAL   =    6.000    mass and valenz                                          
   RCORE  =    1.850    outmost cutoff radius                                                       
   RWIGS  =    1.700; RWIGS  =    0.900    wigner-seitz radius (au A)                               
   ENMAX  =  282.853; ENMIN  =  212.140 eV                                                          
   RCLOC  =    0.804    cutoff for local pot                                                        
   LCOR   =        T    correct aug charges                                                         
   LPAW   =        T    paw PP                                                                      
   EAUG   =  412.352                                                                                
   RMAX   =    1.897    core radius for proj-oper                                                   
   RAUG   =    1.300    factor for augmentation sphere                                              
   RDEP   =    1.878    radius for radial grids                                                     
   RDEPT  =    1.572    core radius for aug-charge                                                  
                                                                                                    
   Atomic configuration                                                                             
    4 entries                                                                                       
     n  l   j            E        occ.                                                              
     1  0  0.50      -514.6923   2.0000                                                             
     2  0  0.50       -23.9615   2.0000                                                             
     2  1  0.50        -9.0305   4.0000                                                             
     3  2  1.50        -1.3606   0.0000                                                             
   Description                                                                                      
     l       E           TYP  RCUT    TYP  RCUT                                                     
     0    -23.9615315     23  1.500                                                                 
     0    -25.3221141     23  1.500                                                                 
     1     -9.0304908     23  1.850                                                                 
     1     -7.3935399     23  1.850                                                                 
  local pseudopotential read in
  atomic valenz-charges read in
  non local Contribution for L=           0  read in
    real space projection operators read in
  non local Contribution for L=           0  read in
    real space projection operators read in
  non local Contribution for L=           1  read in
    real space projection operators read in
  non local Contribution for L=           1  read in
    real space projection operators read in
    PAW grid and wavefunctions read in
 
   number of l-projection  operators is LMAX  =           4
   number of lm-projection operators is LMMAX =           8
 
 -----------------------------------------------------------------------------
|                                                                             |
|               ----> ADVICE to this user running VASP <----                  |
|                                                                             |
|     You have a (more or less) 'large supercell' and for larger cells it     |
|     might be more efficient to use real-space projection operators.         |
|     Therefore, try LREAL= Auto in the INCAR file.                           |
|     Mind: For very accurate calculation, you might also keep the            |
|     reciprocal projection scheme (i.e. LREAL=.FALSE.).                      |
|                                                                             |
 -----------------------------------------------------------------------------

  PAW_PBE Ti_sv 26Sep2005               :
 energy of atom  1       EATOM=-1588.0892
 kinetic energy error for atom=    0.0102 (will be added to EATOM!!)
 PAW_PBE O_s 07Sep2000                  :
 energy of atom  2       EATOM= -432.3788
 kinetic energy error for atom=    0.0146 (will be added to EATOM!!)
 
 
 POSCAR: Rutile TiO2
  positions in direct lattice
  No initial velocities read in
 exchange correlation table for  LEXCH =        8
   RHO(1)=    0.500       N(1)  =     2000
   RHO(2)=  100.500       N(2)  =     4000
 


--------------------------------------------------------------------------------------------------------


 ion  position               nearest neighbor table
   1  0.000  0.000  0.000-  61 1.95 100 1.95  63 1.95 102 1.95 109 1.97 160 1.97
   2  0.000  0.000  0.333-  62 1.95 101 1.95 100 1.95  61 1.95 110 1.97 161 1.97
   3  0.000  0.000  0.667-  63 1.95 102 1.95 101 1.95  62 1.95 111 1.97 162 1.97
   4  0.000  0.333  0.000- 103 1.95  55 1.95 105 1.95  57 1.95 112 1.97 154 1.97
   5  0.000  0.333  0.333- 104 1.95  56 1.95 103 1.95  55 1.95 113 1.97 155 1.97
   6  0.000  0.333  0.667- 105 1.95  57 1.95 104 1.95  56 1.95 114 1.97 156 1.97
   7  0.000  0.667  0.000- 106 1.95  58 1.95 108 1.95  60 1.95 115 1.97 157 1.97
   8  0.000  0.667  0.333- 107 1.95  59 1.95 106 1.95  58 1.95 116 1.97 158 1.97
   9  0.000  0.667  0.667- 108 1.95  60 1.95 107 1.95  59 1.95 117 1.97 159 1.97
  10  0.333  0.000  0.000-  70 1.95  82 1.95  72 1.95  84 1.95 118 1.97 142 1.97
  11  0.333  0.000  0.333-  71 1.95  83 1.95  70 1.95  82 1.95 119 1.97 143 1.97
  12  0.333  0.000  0.667-  72 1.95  84 1.95  71 1.95  83 1.95 120 1.97 144 1.97
  13  0.333  0.333  0.000-  64 1.95  85 1.95  66 1.95  87 1.95 121 1.97 136 1.97
  14  0.333  0.333  0.333-  65 1.95  86 1.95  85 1.95  64 1.95 122 1.97 137 1.97
  15  0.333  0.333  0.667-  66 1.95  87 1.95  86 1.95  65 1.95 123 1.97 138 1.97
  16  0.333  0.667  0.000-  88 1.95  67 1.95  90 1.95  69 1.95 124 1.97 139 1.97
  17  0.333  0.667  0.333-  89 1.95  68 1.95  88 1.95  67 1.95 125 1.97 140 1.97
  18  0.333  0.667  0.667-  90 1.95  69 1.95  89 1.95  68 1.95 126 1.97 141 1.97
  19  0.667  0.000  0.000-  79 1.95  91 1.95  81 1.95  93 1.95 127 1.97 151 1.97
  20  0.667  0.000  0.333-  80 1.95  92 1.95  79 1.95  91 1.95 128 1.97 152 1.97
  21  0.667  0.000  0.667-  81 1.95  93 1.95  80 1.95  92 1.95 129 1.97 153 1.97
  22  0.667  0.333  0.000-  73 1.95  94 1.95  75 1.95  96 1.95 130 1.97 145 1.97
  23  0.667  0.333  0.333-  74 1.95  95 1.95  73 1.95  94 1.95 131 1.97 146 1.97
  24  0.667  0.333  0.667-  75 1.95  96 1.95  74 1.95  95 1.95 132 1.97 147 1.97
  25  0.667  0.667  0.000-  76 1.95  97 1.95  78 1.95  99 1.95 133 1.97 148 1.97
  26  0.667  0.667  0.333-  77 1.95  98 1.95  97 1.95  76 1.95 134 1.97 149 1.97
  27  0.667  0.667  0.667-  78 1.95  99 1.95  98 1.95  77 1.95 135 1.97 150 1.97
  28  0.167  0.167  0.167- 137 1.95 136 1.95 110 1.95 109 1.95  55 1.97  82 1.97
  29  0.167  0.167  0.500- 137 1.95 110 1.95 138 1.95 111 1.95  56 1.97  83 1.97
  30  0.167  0.167  0.833- 138 1.95 111 1.95 136 1.95 109 1.95  57 1.97  84 1.97
  31  0.167  0.500  0.167- 140 1.95 139 1.95 113 1.95 112 1.95  85 1.97  58 1.97
  32  0.167  0.500  0.500- 140 1.95 113 1.95 141 1.95 114 1.95  86 1.97  59 1.97
  33  0.167  0.500  0.833- 141 1.95 114 1.95 139 1.95 112 1.95  87 1.97  60 1.97
  34  0.167  0.833  0.167- 143 1.95 142 1.95 116 1.95 115 1.95  88 1.97  61 1.97
  35  0.167  0.833  0.500- 143 1.95 116 1.95 144 1.95 117 1.95  89 1.97  62 1.97
  36  0.167  0.833  0.833- 144 1.95 117 1.95 142 1.95 115 1.95  90 1.97  63 1.97
  37  0.500  0.167  0.167- 146 1.95 145 1.95 119 1.95 118 1.95  64 1.97  91 1.97
  38  0.500  0.167  0.500- 146 1.95 119 1.95 147 1.95 120 1.95  65 1.97  92 1.97
  39  0.500  0.167  0.833- 147 1.95 120 1.95 145 1.95 118 1.95  66 1.97  93 1.97
  40  0.500  0.500  0.167- 122 1.95 149 1.95 148 1.95 121 1.95  67 1.97  94 1.97
  41  0.500  0.500  0.500- 122 1.95 149 1.95 123 1.95 150 1.95  68 1.97  95 1.97
  42  0.500  0.500  0.833- 123 1.95 150 1.95 148 1.95 121 1.95  69 1.97  96 1.97
  43  0.500  0.833  0.167- 125 1.95 152 1.95 124 1.95 151 1.95  97 1.97  70 1.97
  44  0.500  0.833  0.500- 125 1.95 152 1.95 126 1.95 153 1.95  98 1.97  71 1.97
  45  0.500  0.833  0.833- 126 1.95 153 1.95 124 1.95 151 1.95  99 1.97  72 1.97
  46  0.833  0.167  0.167- 155 1.95 154 1.95 128 1.95 127 1.95  73 1.97 100 1.97
  47  0.833  0.167  0.500- 155 1.95 128 1.95 156 1.95 129 1.95  74 1.97 101 1.97
  48  0.833  0.167  0.833- 156 1.95 129 1.95 154 1.95 127 1.95  75 1.97 102 1.97
  49  0.833  0.500  0.167- 131 1.95 158 1.95 130 1.95 157 1.95  76 1.97 103 1.97
  50  0.833  0.500  0.500- 131 1.95 158 1.95 132 1.95 159 1.95  77 1.97 104 1.97
  51  0.833  0.500  0.833- 132 1.95 159 1.95 130 1.95 157 1.95  78 1.97 105 1.97
  52  0.833  0.833  0.167- 134 1.95 133 1.95 161 1.95 160 1.95  79 1.97 106 1.97
  53  0.833  0.833  0.500- 134 1.95 161 1.95 135 1.95 162 1.95  80 1.97 107 1.97
  54  0.833  0.833  0.833- 135 1.95 162 1.95 133 1.95 160 1.95  81 1.97 108 1.97
  55  0.065  0.268  0.167-   5 1.95   4 1.95  28 1.97
  56  0.065  0.268  0.500-   5 1.95   6 1.95  29 1.97
  57  0.065  0.268  0.833-   6 1.95   4 1.95  30 1.97
  58  0.065  0.601  0.167-   8 1.95   7 1.95  31 1.97
  59  0.065  0.601  0.500-   8 1.95   9 1.95  32 1.97
  60  0.065  0.601  0.833-   9 1.95   7 1.95  33 1.97
  61  0.065  0.935  0.167-   2 1.95   1 1.95  34 1.97
  62  0.065  0.935  0.500-   2 1.95   3 1.95  35 1.97
  63  0.065  0.935  0.833-   3 1.95   1 1.95  36 1.97
  64  0.399  0.268  0.167-  14 1.95  13 1.95  37 1.97
  65  0.399  0.268  0.500-  14 1.95  15 1.95  38 1.97
  66  0.399  0.268  0.833-  15 1.95  13 1.95  39 1.97
  67  0.399  0.601  0.167-  17 1.95  16 1.95  40 1.97
  68  0.399  0.601  0.500-  17 1.95  18 1.95  41 1.97
  69  0.399  0.601  0.833-  18 1.95  16 1.95  42 1.97
  70  0.399  0.935  0.167-  11 1.95  10 1.95  43 1.97
  71  0.399  0.935  0.500-  11 1.95  12 1.95  44 1.97
  72  0.399  0.935  0.833-  12 1.95  10 1.95  45 1.97
  73  0.732  0.268  0.167-  23 1.95  22 1.95  46 1.97
  74  0.732  0.268  0.500-  23 1.95  24 1.95  47 1.97
  75  0.732  0.268  0.833-  24 1.95  22 1.95  48 1.97
  76  0.732  0.601  0.167-  26 1.95  25 1.95  49 1.97
  77  0.732  0.601  0.500-  26 1.95  27 1.95  50 1.97
  78  0.732  0.601  0.833-  27 1.95  25 1.95  51 1.97
  79  0.732  0.935  0.167-  20 1.95  19 1.95  52 1.97
  80  0.732  0.935  0.500-  20 1.95  21 1.95  53 1.97
  81  0.732  0.935  0.833-  21 1.95  19 1.95  54 1.97
  82  0.268  0.065  0.167-  11 1.95  10 1.95  28 1.97
  83  0.268  0.065  0.500-  11 1.95  12 1.95  29 1.97
  84  0.268  0.065  0.833-  12 1.95  10 1.95  30 1.97
  85  0.268  0.399  0.167-  14 1.95  13 1.95  31 1.97
  86  0.268  0.399  0.500-  14 1.95  15 1.95  32 1.97
  87  0.268  0.399  0.833-  15 1.95  13 1.95  33 1.97
  88  0.268  0.732  0.167-  17 1.95  16 1.95  34 1.97
  89  0.268  0.732  0.500-  17 1.95  18 1.95  35 1.97
  90  0.268  0.732  0.833-  18 1.95  16 1.95  36 1.97
  91  0.601  0.065  0.167-  20 1.95  19 1.95  37 1.97
  92  0.601  0.065  0.500-  20 1.95  21 1.95  38 1.97
  93  0.601  0.065  0.833-  21 1.95  19 1.95  39 1.97
  94  0.601  0.399  0.167-  23 1.95  22 1.95  40 1.97
  95  0.601  0.399  0.500-  23 1.95  24 1.95  41 1.97
  96  0.601  0.399  0.833-  24 1.95  22 1.95  42 1.97
  97  0.601  0.732  0.167-  26 1.95  25 1.95  43 1.97
  98  0.601  0.732  0.500-  26 1.95  27 1.95  44 1.97
  99  0.601  0.732  0.833-  27 1.95  25 1.95  45 1.97
 100  0.935  0.065  0.167-   2 1.95   1 1.95  46 1.97
 101  0.935  0.065  0.500-   2 1.95   3 1.95  47 1.97
 102  0.935  0.065  0.833-   3 1.95   1 1.95  48 1.97
 103  0.935  0.399  0.167-   5 1.95   4 1.95  49 1.97
 104  0.935  0.399  0.500-   5 1.95   6 1.95  50 1.97
 105  0.935  0.399  0.833-   6 1.95   4 1.95  51 1.97
 106  0.935  0.732  0.167-   8 1.95   7 1.95  52 1.97
 107  0.935  0.732  0.500-   8 1.95   9 1.95  53 1.97
 108  0.935  0.732  0.833-   9 1.95   7 1.95  54 1.97
 109  0.101  0.101  0.000-  28 1.95  30 1.95   1 1.97
 110  0.101  0.101  0.333-  29 1.95  28 1.95   2 1.97
 111  0.101  0.101  0.667-  30 1.95  29 1.95   3 1.97
 112  0.101  0.435  0.000-  31 1.95  33 1.95   4 1.97
 113  0.101  0.435  0.333-  32 1.95  31 1.95   5 1.97
 114  0.101  0.435  0.667-  33 1.95  32 1.95   6 1.97
 115  0.101  0.768  0.000-  34 1.95  36 1.95   7 1.97
 116  0.101  0.768  0.333-  35 1.95  34 1.95   8 1.97
 117  0.101  0.768  0.667-  36 1.95  35 1.95   9 1.97
 118  0.435  0.101  0.000-  37 1.95  39 1.95  10 1.97
 119  0.435  0.101  0.333-  38 1.95  37 1.95  11 1.97
 120  0.435  0.101  0.667-  39 1.95  38 1.95  12 1.97
 121  0.435  0.435  0.000-  40 1.95  42 1.95  13 1.97
 122  0.435  0.435  0.333-  41 1.95  40 1.95  14 1.97
 123  0.435  0.435  0.667-  42 1.95  41 1.95  15 1.97
 124  0.435  0.768  0.000-  43 1.95  45 1.95  16 1.97
 125  0.435  0.768  0.333-  44 1.95  43 1.95  17 1.97
 126  0.435  0.768  0.667-  45 1.95  44 1.95  18 1.97
 127  0.768  0.101  0.000-  46 1.95  48 1.95  19 1.97
 128  0.768  0.101  0.333-  47 1.95  46 1.95  20 1.97
 129  0.768  0.101  0.667-  48 1.95  47 1.95  21 1.97
 130  0.768  0.435  0.000-  49 1.95  51 1.95  22 1.97
 131  0.768  0.435  0.333-  50 1.95  49 1.95  23 1.97
 132  0.768  0.435  0.667-  51 1.95  50 1.95  24 1.97
 133  0.768  0.768  0.000-  52 1.95  54 1.95  25 1.97
 134  0.768  0.768  0.333-  53 1.95  52 1.95  26 1.97
 135  0.768  0.768  0.667-  54 1.95  53 1.95  27 1.97
 136  0.232  0.232  0.000-  28 1.95  30 1.95  13 1.97
 137  0.232  0.232  0.333-  29 1.95  28 1.95  14 1.97
 138  0.232  0.232  0.667-  30 1.95  29 1.95  15 1.97
 139  0.232  0.565  0.000-  31 1.95  33 1.95  16 1.97
 140  0.232  0.565  0.333-  32 1.95  31 1.95  17 1.97
 141  0.232  0.565  0.667-  33 1.95  32 1.95  18 1.97
 142  0.232  0.899  0.000-  34 1.95  36 1.95  10 1.97
 143  0.232  0.899  0.333-  35 1.95  34 1.95  11 1.97
 144  0.232  0.899  0.667-  36 1.95  35 1.95  12 1.97
 145  0.565  0.232  0.000-  37 1.95  39 1.95  22 1.97
 146  0.565  0.232  0.333-  38 1.95  37 1.95  23 1.97
 147  0.565  0.232  0.667-  39 1.95  38 1.95  24 1.97
 148  0.565  0.565  0.000-  40 1.95  42 1.95  25 1.97
 149  0.565  0.565  0.333-  41 1.95  40 1.95  26 1.97
 150  0.565  0.565  0.667-  42 1.95  41 1.95  27 1.97
 151  0.565  0.899  0.000-  43 1.95  45 1.95  19 1.97
 152  0.565  0.899  0.333-  44 1.95  43 1.95  20 1.97
 153  0.565  0.899  0.667-  45 1.95  44 1.95  21 1.97
 154  0.899  0.232  0.000-  46 1.95  48 1.95   4 1.97
 155  0.899  0.232  0.333-  47 1.95  46 1.95   5 1.97
 156  0.899  0.232  0.667-  48 1.95  47 1.95   6 1.97
 157  0.899  0.565  0.000-  49 1.95  51 1.95   7 1.97
 158  0.899  0.565  0.333-  50 1.95  49 1.95   8 1.97
 159  0.899  0.565  0.667-  51 1.95  50 1.95   9 1.97
 160  0.899  0.899  0.000-  52 1.95  54 1.95   1 1.97
 161  0.899  0.899  0.333-  53 1.95  52 1.95   2 1.97
 162  0.899  0.899  0.667-  54 1.95  53 1.95   3 1.97
 
  LATTYP: Found a simple tetragonal cell.
 ALAT       =    13.7520008087
 C/A-ratio  =     0.6441971848
  
  Lattice vectors:
  
 A1 = (  13.7520008087,   0.0000000000,   0.0000000000)
 A2 = (   0.0000000000,  13.7520008087,   0.0000000000)
 A3 = (   0.0000000000,   0.0000000000,   8.8590002060)


Analysis of symmetry for initial positions (statically):
=====================================================================
 Subroutine PRICEL returns following result:
 
  LATTYP: Found a simple tetragonal cell.
 ALAT       =     4.5840004025
 C/A-ratio  =     0.6441971848
  
  Lattice vectors:
  
 A1 = (   4.5840004025,   0.0000000000,   0.0000000000)
 A2 = (   0.0000000000,   4.5840004025,   0.0000000000)
 A3 = (   0.0000000000,   0.0000000000,   2.9530001543)
 
  27 primitive cells build up your supercell.
 

 Routine SETGRP: Setting up the symmetry group for a 
 simple tetragonal supercell.


 Subroutine GETGRP returns: Found 16 space group operations
 (whereof  8 operations were pure point group operations)
 out of a pool of 16 trial point group operations.


The static configuration has the point symmetry D_2h.
 The point group associated with its full space group is D_4h.


Analysis of symmetry for dynamics (positions and initial velocities):
=====================================================================
 Subroutine PRICEL returns following result:
 
  LATTYP: Found a simple tetragonal cell.
 ALAT       =     4.5840004025
 C/A-ratio  =     0.6441971848
  
  Lattice vectors:
  
 A1 = (   4.5840004025,   0.0000000000,   0.0000000000)
 A2 = (   0.0000000000,   4.5840004025,   0.0000000000)
 A3 = (   0.0000000000,   0.0000000000,   2.9530001543)
 
  27 primitive cells build up your supercell.
 

 Routine SETGRP: Setting up the symmetry group for a 
 simple tetragonal supercell.


 Subroutine GETGRP returns: Found 16 space group operations
 (whereof  8 operations were pure point group operations)
 out of a pool of 16 trial point group operations.


The dynamic configuration has the point symmetry D_2h.
 The point group associated with its full space group is D_4h.


 Subroutine INISYM returns: Found 16 space group operations
 (whereof  8 operations are pure point group operations),
 and found    27 'primitive' translations


----------------------------------------------------------------------------------------

                                     Primitive cell                                     

  volume of cell :      62.0516

  direct lattice vectors                    reciprocal lattice vectors
     4.584000403  0.000000000  0.000000000     0.218150068  0.000000000  0.000000000
     0.000000000  4.584000403  0.000000000     0.000000000  0.218150068  0.000000000
     0.000000000  0.000000000  2.953000154     0.000000000  0.000000000  0.338638655

  length of vectors
     4.584000403  4.584000403  2.953000154     0.218150068  0.218150068  0.338638655

  position of ions in fractional coordinates (direct lattice)
     0.000000000  0.000000000  0.000000000
     0.500000002  0.500000002  0.500000002
     0.196236864  0.803763070  0.500000002
     0.803763070  0.196236864  0.500000002
     0.303763134  0.303763134  0.000000000
     0.696236710  0.696236710  0.000000000

  ion indices of the primitive-cell ions
   primitive index   ion index
                 1           1
                 2          28
                 3          61
                 4         100
                 5         109
                 6         160

----------------------------------------------------------------------------------------

 
 
 KPOINTS: Automatic KPOINTS generation            

Automatic generation of k-mesh.
 Grid dimensions read from file:
 generate k-points for:    6    6    6

 Generating k-lattice:

  Cartesian coordinates                     Fractional coordinates (reciprocal lattice)
     0.012119449  0.000000000  0.000000000     0.166666667  0.000000000  0.000000000
     0.000000000  0.012119449  0.000000000     0.000000000  0.166666667  0.000000000
     0.000000000  0.000000000  0.018813259     0.000000000  0.000000000  0.166666667

  Length of vectors
     0.012119449  0.012119449  0.018813259

  Shift w.r.t. Gamma in fractional coordinates (k-lattice)
     0.000000000  0.000000000  0.000000000

 
 Subroutine IBZKPT returns following result:
 ===========================================
 
 Found     40 irreducible k-points:
 
 Following reciprocal coordinates:
            Coordinates               Weight
  0.000000  0.000000  0.000000      1.000000
  0.166667  0.000000  0.000000      4.000000
  0.333333  0.000000  0.000000      4.000000
  0.500000  0.000000  0.000000      2.000000
  0.166667  0.166667  0.000000      4.000000
  0.333333  0.166667  0.000000      8.000000
  0.500000  0.166667  0.000000      4.000000
  0.333333  0.333333  0.000000      4.000000
  0.500000  0.333333  0.000000      4.000000
  0.500000  0.500000  0.000000      1.000000
  0.000000  0.000000  0.166667      2.000000
  0.166667  0.000000  0.166667      8.000000
  0.333333  0.000000  0.166667      8.000000
  0.500000  0.000000  0.166667      4.000000
  0.166667  0.166667  0.166667      8.000000
  0.333333  0.166667  0.166667     16.000000
  0.500000  0.166667  0.166667      8.000000
  0.333333  0.333333  0.166667      8.000000
  0.500000  0.333333  0.166667      8.000000
  0.500000  0.500000  0.166667      2.000000
  0.000000  0.000000  0.333333      2.000000
  0.166667  0.000000  0.333333      8.000000
  0.333333  0.000000  0.333333      8.000000
  0.500000  0.000000  0.333333      4.000000
  0.166667  0.166667  0.333333      8.000000
  0.333333  0.166667  0.333333     16.000000
  0.500000  0.166667  0.333333      8.000000
  0.333333  0.333333  0.333333      8.000000
  0.500000  0.333333  0.333333      8.000000
  0.500000  0.500000  0.333333      2.000000
  0.000000  0.000000  0.500000      1.000000
  0.166667  0.000000  0.500000      4.000000
  0.333333  0.000000  0.500000      4.000000
  0.500000  0.000000  0.500000      2.000000
  0.166667  0.166667  0.500000      4.000000
  0.333333  0.166667  0.500000      8.000000
  0.500000  0.166667  0.500000      4.000000
  0.333333  0.333333  0.500000      4.000000
  0.500000  0.333333  0.500000      4.000000
  0.500000  0.500000  0.500000      1.000000
 
 Following cartesian coordinates:
            Coordinates               Weight
  0.000000  0.000000  0.000000      1.000000
  0.012119  0.000000  0.000000      4.000000
  0.024239  0.000000  0.000000      4.000000
  0.036358  0.000000  0.000000      2.000000
  0.012119  0.012119  0.000000      4.000000
  0.024239  0.012119  0.000000      8.000000
  0.036358  0.012119  0.000000      4.000000
  0.024239  0.024239  0.000000      4.000000
  0.036358  0.024239  0.000000      4.000000
  0.036358  0.036358  0.000000      1.000000
  0.000000  0.000000  0.018813      2.000000
  0.012119  0.000000  0.018813      8.000000
  0.024239  0.000000  0.018813      8.000000
  0.036358  0.000000  0.018813      4.000000
  0.012119  0.012119  0.018813      8.000000
  0.024239  0.012119  0.018813     16.000000
  0.036358  0.012119  0.018813      8.000000
  0.024239  0.024239  0.018813      8.000000
  0.036358  0.024239  0.018813      8.000000
  0.036358  0.036358  0.018813      2.000000
  0.000000  0.000000  0.037627      2.000000
  0.012119  0.000000  0.037627      8.000000
  0.024239  0.000000  0.037627      8.000000
  0.036358  0.000000  0.037627      4.000000
  0.012119  0.012119  0.037627      8.000000
  0.024239  0.012119  0.037627     16.000000
  0.036358  0.012119  0.037627      8.000000
  0.024239  0.024239  0.037627      8.000000
  0.036358  0.024239  0.037627      8.000000
  0.036358  0.036358  0.037627      2.000000
  0.000000  0.000000  0.056440      1.000000
  0.012119  0.000000  0.056440      4.000000
  0.024239  0.000000  0.056440      4.000000
  0.036358  0.000000  0.056440      2.000000
  0.012119  0.012119  0.056440      4.000000
  0.024239  0.012119  0.056440      8.000000
  0.036358  0.012119  0.056440      4.000000
  0.024239  0.024239  0.056440      4.000000
  0.036358  0.024239  0.056440      4.000000
  0.036358  0.036358  0.056440      1.000000
 


--------------------------------------------------------------------------------------------------------




 Dimension of arrays:
   k-points           NKPTS =     40   k-points in BZ     NKDIM =     40   number of bands    NBANDS=    780
   number of dos      NEDOS =    301   number of ions     NIONS =    162
   non local maximal  LDIM  =      6   non local SUM 2l+1 LMDIM =     18
   total plane-waves  NPLWV = 235200
   max r-space proj   IRMAX =      1   max aug-charges    IRDMAX=   5649
   dimension x,y,z NGX =    70 NGY =   70 NGZ =   48
   dimension x,y,z NGXF=   140 NGYF=  140 NGZF=   96
   support grid    NGXF=   140 NGYF=  140 NGZF=   96
   ions per type =              54 108
   NGX,Y,Z   is equivalent  to a cutoff of   8.46,  8.46,  9.01 a.u.
   NGXF,Y,Z  is equivalent  to a cutoff of  16.92, 16.92, 18.02 a.u.

 SYSTEM =  TiO2                                    
 POSCAR =  Rutile TiO2                             

 Startparameter for this run:
   NWRITE =      2    write-flag & timer
   PREC   = normal    normal or accurate (medium, high low for compatibility)
   ISTART =      0    job   : 0-new  1-cont  2-samecut
   ICHARG =      0    charge: 1-file 2-atom 10-const
   ISPIN  =      1    spin polarized calculation?
   LNONCOLLINEAR =      F non collinear calculations
   LSORBIT =      F    spin-orbit coupling
   INIWAV =      1    electr: 0-lowe 1-rand  2-diag
   LASPH  =      F    aspherical Exc in radial PAW
   METAGGA=      F    non-selfconsistent MetaGGA calc.

 Electronic Relaxation 1
   ENCUT  =  420.0 eV  30.87 Ry    5.56 a.u.  22.98 22.98 14.80*2*pi/ulx,y,z
   ENINI  =  420.0     initial cutoff
   ENAUG  =  482.8 eV  augmentation charge cutoff
   NELM   =     60;   NELMIN=  2; NELMDL= -5     # of ELM steps 
   EDIFF  = 0.1E-04   stopping-criterion for ELM
   LREAL  =      F    real-space projection
   NLSPLINE    = F    spline interpolate recip. space projectors
   LCOMPAT=      F    compatible to vasp.4.4
   GGA_COMPAT  = T    GGA compatible to vasp.4.4-vasp.4.6
   LMAXPAW     = -100 max onsite density
   LMAXMIX     =    4 max onsite mixed and CHGCAR
   VOSKOWN=      0    Vosko Wilk Nusair interpolation
   ROPT   =    0.00000   0.00000
 Ionic relaxation
   EDIFFG = 0.1E-03   stopping-criterion for IOM
   NSW    =      0    number of steps for IOM
   NBLOCK =      1;   KBLOCK =      1    inner block; outer block 
   IBRION =     -1    ionic relax: 0-MD 1-quasi-New 2-CG
   NFREE  =      0    steps in history (QN), initial steepest desc. (CG)
   ISIF   =      2    stress and relaxation
   IWAVPR =     10    prediction:  0-non 1-charg 2-wave 3-comb
   ISYM   =      2    0-nonsym 1-usesym 2-fastsym
   LCORR  =      T    Harris-Foulkes like correction to forces

   POTIM  = 0.5000    time-step for ionic-motion
   TEIN   =    0.0    initial temperature
   TEBEG  =    0.0;   TEEND  =   0.0 temperature during run
   SMASS  =  -3.00    Nose mass-parameter (am)
   estimated Nose-frequenzy (Omega)   =  0.10E-29 period in steps = 0.13E+47 mass=  -0.432E-26a.u.
   SCALEE = 1.0000    scale energy and forces
   NPACO  =    256;   APACO  = 16.0  distance and # of slots for P.C.
   PSTRESS=    0.0 pullay stress

  Mass of Ions in am
   POMASS =  47.88 16.00
  Ionic Valenz
   ZVAL   =  12.00  6.00
  Atomic Wigner-Seitz radii
   RWIGS  =  -1.00 -1.00
  virtual crystal weights 
   VCA    =   1.00  1.00
   NELECT =    1296.0000    total number of electrons
   NUPDOWN=      -1.0000    fix difference up-down

 DOS related values:
   EMIN   =  10.00;   EMAX   =-10.00  energy-range for DOS
   EFERMI =   0.00
   ISMEAR =     0;   SIGMA  =   0.01  broadening in eV -4-tet -1-fermi 0-gaus

 Electronic relaxation 2 (details)
   IALGO  =     38    algorithm
   LDIAG  =      T    sub-space diagonalisation (order eigenvalues)
   LSUBROT=      F    optimize rotation matrix (better conditioning)
   TURBO    =      0    0=normal 1=particle mesh
   IRESTART =      0    0=no restart 2=restart with 2 vectors
   NREBOOT  =      0    no. of reboots
   NMIN     =      0    reboot dimension
   EREF     =   0.00    reference energy to select bands
   IMIX   =      4    mixing-type and parameters
     AMIX     =   0.40;   BMIX     =  1.00
     AMIX_MAG =   1.60;   BMIX_MAG =  1.00
     AMIN     =   0.10
     WC   =   100.;   INIMIX=   1;  MIXPRE=   1;  MAXMIX= -45

 Intra band minimization:
   WEIMIN = 0.0000     energy-eigenvalue tresh-hold
   EBREAK =  0.32E-08  absolut break condition
   DEPER  =   0.30     relativ break condition  

   TIME   =   0.40     timestep for ELM

  volume/ion in A,a.u.               =      10.34        69.79
  Fermi-wavevector in a.u.,A,eV,Ry     =   1.502811  2.839901 30.727950  2.258441
  Thomas-Fermi vector in A             =   2.614003
 
 Write flags
   LWAVE        =      T    write WAVECAR
   LDOWNSAMPLE  =      F    k-point downsampling of WAVECAR
   LCHARG       =      T    write CHGCAR
   LVTOT        =      F    write LOCPOT, total local potential
   LVHAR        =      F    write LOCPOT, Hartree potential only
   LELF         =      F    write electronic localiz. function (ELF)
   LORBIT       =      0    0 simple, 1 ext, 2 COOP (PROOUT), +10 PAW based schemes


 Dipole corrections
   LMONO  =      F    monopole corrections only (constant potential shift)
   LDIPOL =      F    correct potential (dipole corrections)
   IDIPOL =      0    1-x, 2-y, 3-z, 4-all directions 
   EPSILON=  1.0000000 bulk dielectric constant

 LDA+U is selected, type is set to LDAUTYPE =  2
   angular momentum for each species LDAUL =     2   -1
   U (eV)           for each species LDAUU =   3.9  0.0
   J (eV)           for each species LDAUJ =   0.0  0.0
 Exchange correlation treatment:
   GGA     =    --    GGA type
   LEXCH   =     8    internal setting for exchange type
   VOSKOWN=      0    Vosko Wilk Nusair interpolation
   LHFCALC =     F    Hartree Fock is set to
   LHFONE  =     F    Hartree Fock one center treatment
   AEXX    =    0.0000 exact exchange contribution

 Linear response parameters
   LEPSILON=     F    determine dielectric tensor
   LRPA    =     F    only Hartree local field effects (RPA)
   LNABLA  =     F    use nabla operator in PAW spheres
   LVEL    =     F    velocity operator in full k-point grid
   LINTERFAST=   F  fast interpolation
   KINTER  =     0    interpolate to denser k-point grid
   CSHIFT  =0.1000    complex shift for real part using Kramers Kronig
   OMEGAMAX=  -1.0    maximum frequency
   DEG_THRESHOLD= 0.2000000E-02 threshold for treating states as degnerate
   RTIME   =   -0.100 relaxation time in fs
  (WPLASMAI=    0.000 imaginary part of plasma frequency in eV, 0.658/RTIME)
   DFIELD  = 0.0000000 0.0000000 0.0000000 field for delta impulse in time
 
 Orbital magnetization related:
   ORBITALMAG=     F  switch on orbital magnetization
   LCHIMAG   =     F  perturbation theory with respect to B field
   DQ        =  0.001000  dq finite difference perturbation B field
   LLRAUG    =     F  two centre corrections for induced B field



--------------------------------------------------------------------------------------------------------


 Static calculation
 charge density and potential will be updated during run
 non-spin polarized calculation
 Variant of blocked Davidson
 Davidson routine will perform the subspace rotation
 perform sub-space diagonalisation
    after iterative eigenvector-optimisation
 modified Broyden-mixing scheme, WC =      100.0
 initial mixing is a Kerker type mixing with AMIX =  0.4000 and BMIX =      1.0000
 Hartree-type preconditioning will be used
 using additional bands          132
 reciprocal scheme for non local part
 use partial core corrections
 calculate Harris-corrections to forces 
   (improved forces if not selfconsistent)
 use gradient corrections 
 use of overlap-Matrix (Vanderbilt PP)
 Gauss-broadening in eV      SIGMA  =   0.01


--------------------------------------------------------------------------------------------------------


  energy-cutoff  :      420.00
  volume of cell :     1675.39
      direct lattice vectors                 reciprocal lattice vectors
    13.752000809  0.000000000  0.000000000     0.072716691  0.000000000  0.000000000
     0.000000000 13.752000809  0.000000000     0.000000000  0.072716691  0.000000000
     0.000000000  0.000000000  8.859000206     0.000000000  0.000000000  0.112879555

  length of vectors
    13.752000809 13.752000809  8.859000206     0.072716691  0.072716691  0.112879555


 
 k-points in units of 2pi/SCALE and weight: Automatic KPOINTS generation            
   0.00000000  0.00000000  0.00000000       0.005
   0.01211945  0.00000000  0.00000000       0.019
   0.02423890  0.00000000  0.00000000       0.019
   0.03635835  0.00000000  0.00000000       0.009
   0.01211945  0.01211945  0.00000000       0.019
   0.02423890  0.01211945  0.00000000       0.037
   0.03635835  0.01211945  0.00000000       0.019
   0.02423890  0.02423890  0.00000000       0.019
   0.03635835  0.02423890  0.00000000       0.019
   0.03635835  0.03635835  0.00000000       0.005
   0.00000000  0.00000000  0.01881326       0.009
   0.01211945  0.00000000  0.01881326       0.037
   0.02423890  0.00000000  0.01881326       0.037
   0.03635835  0.00000000  0.01881326       0.019
   0.01211945  0.01211945  0.01881326       0.037
   0.02423890  0.01211945  0.01881326       0.074
   0.03635835  0.01211945  0.01881326       0.037
   0.02423890  0.02423890  0.01881326       0.037
   0.03635835  0.02423890  0.01881326       0.037
   0.03635835  0.03635835  0.01881326       0.009
   0.00000000  0.00000000  0.03762652       0.009
   0.01211945  0.00000000  0.03762652       0.037
   0.02423890  0.00000000  0.03762652       0.037
   0.03635835  0.00000000  0.03762652       0.019
   0.01211945  0.01211945  0.03762652       0.037
   0.02423890  0.01211945  0.03762652       0.074
   0.03635835  0.01211945  0.03762652       0.037
   0.02423890  0.02423890  0.03762652       0.037
   0.03635835  0.02423890  0.03762652       0.037
   0.03635835  0.03635835  0.03762652       0.009
   0.00000000  0.00000000  0.05643978       0.005
   0.01211945  0.00000000  0.05643978       0.019
   0.02423890  0.00000000  0.05643978       0.019
   0.03635835  0.00000000  0.05643978       0.009
   0.01211945  0.01211945  0.05643978       0.019
   0.02423890  0.01211945  0.05643978       0.037
   0.03635835  0.01211945  0.05643978       0.019
   0.02423890  0.02423890  0.05643978       0.019
   0.03635835  0.02423890  0.05643978       0.019
   0.03635835  0.03635835  0.05643978       0.005
 
 k-points in reciprocal lattice and weights: Automatic KPOINTS generation            
   0.00000000  0.00000000  0.00000000       0.005
   0.16666667  0.00000000  0.00000000       0.019
   0.33333333  0.00000000  0.00000000       0.019
   0.50000000  0.00000000  0.00000000       0.009
   0.16666667  0.16666667  0.00000000       0.019
   0.33333333  0.16666667  0.00000000       0.037
   0.50000000  0.16666667  0.00000000       0.019
   0.33333333  0.33333333  0.00000000       0.019
   0.50000000  0.33333333  0.00000000       0.019
   0.50000000  0.50000000  0.00000000       0.005
   0.00000000  0.00000000  0.16666667       0.009
   0.16666667  0.00000000  0.16666667       0.037
   0.33333333  0.00000000  0.16666667       0.037
   0.50000000  0.00000000  0.16666667       0.019
   0.16666667  0.16666667  0.16666667       0.037
   0.33333333  0.16666667  0.16666667       0.074
   0.50000000  0.16666667  0.16666667       0.037
   0.33333333  0.33333333  0.16666667       0.037
   0.50000000  0.33333333  0.16666667       0.037
   0.50000000  0.50000000  0.16666667       0.009
   0.00000000  0.00000000  0.33333333       0.009
   0.16666667  0.00000000  0.33333333       0.037
   0.33333333  0.00000000  0.33333333       0.037
   0.50000000  0.00000000  0.33333333       0.019
   0.16666667  0.16666667  0.33333333       0.037
   0.33333333  0.16666667  0.33333333       0.074
   0.50000000  0.16666667  0.33333333       0.037
   0.33333333  0.33333333  0.33333333       0.037
   0.50000000  0.33333333  0.33333333       0.037
   0.50000000  0.50000000  0.33333333       0.009
   0.00000000  0.00000000  0.50000000       0.005
   0.16666667  0.00000000  0.50000000       0.019
   0.33333333  0.00000000  0.50000000       0.019
   0.50000000  0.00000000  0.50000000       0.009
   0.16666667  0.16666667  0.50000000       0.019
   0.33333333  0.16666667  0.50000000       0.037
   0.50000000  0.16666667  0.50000000       0.019
   0.33333333  0.33333333  0.50000000       0.019
   0.50000000  0.33333333  0.50000000       0.019
   0.50000000  0.50000000  0.50000000       0.005
 
 position of ions in fractional coordinates (direct lattice) 
   0.00000000  0.00000000  0.00000000
   0.00000000  0.00000000  0.33333334
   0.00000000  0.00000000  0.66666669
   0.00000000  0.33333334  0.00000000
   0.00000000  0.33333334  0.33333334
   0.00000000  0.33333334  0.66666669
   0.00000000  0.66666669  0.00000000
   0.00000000  0.66666669  0.33333334
   0.00000000  0.66666669  0.66666669
   0.33333334  0.00000000  0.00000000
   0.33333334  0.00000000  0.33333334
   0.33333334  0.00000000  0.66666669
   0.33333334  0.33333334  0.00000000
   0.33333334  0.33333334  0.33333334
   0.33333334  0.33333334  0.66666669
   0.33333334  0.66666669  0.00000000
   0.33333334  0.66666669  0.33333334
   0.33333334  0.66666669  0.66666669
   0.66666669  0.00000000  0.00000000
   0.66666669  0.00000000  0.33333334
   0.66666669  0.00000000  0.66666669
   0.66666669  0.33333334  0.00000000
   0.66666669  0.33333334  0.33333334
   0.66666669  0.33333334  0.66666669
   0.66666669  0.66666669  0.00000000
   0.66666669  0.66666669  0.33333334
   0.66666669  0.66666669  0.66666669
   0.16666667  0.16666667  0.16666667
   0.16666667  0.16666667  0.50000000
   0.16666667  0.16666667  0.83333331
   0.16666667  0.50000000  0.16666667
   0.16666667  0.50000000  0.50000000
   0.16666667  0.50000000  0.83333331
   0.16666667  0.83333331  0.16666667
   0.16666667  0.83333331  0.50000000
   0.16666667  0.83333331  0.83333331
   0.50000000  0.16666667  0.16666667
   0.50000000  0.16666667  0.50000000
   0.50000000  0.16666667  0.83333331
   0.50000000  0.50000000  0.16666667
   0.50000000  0.50000000  0.50000000
   0.50000000  0.50000000  0.83333331
   0.50000000  0.83333331  0.16666667
   0.50000000  0.83333331  0.50000000
   0.50000000  0.83333331  0.83333331
   0.83333331  0.16666667  0.16666667
   0.83333331  0.16666667  0.50000000
   0.83333331  0.16666667  0.83333331
   0.83333331  0.50000000  0.16666667
   0.83333331  0.50000000  0.50000000
   0.83333331  0.50000000  0.83333331
   0.83333331  0.83333331  0.16666667
   0.83333331  0.83333331  0.50000000
   0.83333331  0.83333331  0.83333331
   0.06541229  0.26792106  0.16666667
   0.06541229  0.26792106  0.50000000
   0.06541229  0.26792106  0.83333331
   0.06541229  0.60125440  0.16666667
   0.06541229  0.60125440  0.50000000
   0.06541229  0.60125440  0.83333331
   0.06541229  0.93458772  0.16666667
   0.06541229  0.93458772  0.50000000
   0.06541229  0.93458772  0.83333331
   0.39874563  0.26792106  0.16666667
   0.39874563  0.26792106  0.50000000
   0.39874563  0.26792106  0.83333331
   0.39874563  0.60125440  0.16666667
   0.39874563  0.60125440  0.50000000
   0.39874563  0.60125440  0.83333331
   0.39874563  0.93458772  0.16666667
   0.39874563  0.93458772  0.50000000
   0.39874563  0.93458772  0.83333331
   0.73207897  0.26792106  0.16666667
   0.73207897  0.26792106  0.50000000
   0.73207897  0.26792106  0.83333331
   0.73207897  0.60125440  0.16666667
   0.73207897  0.60125440  0.50000000
   0.73207897  0.60125440  0.83333331
   0.73207897  0.93458772  0.16666667
   0.73207897  0.93458772  0.50000000
   0.73207897  0.93458772  0.83333331
   0.26792106  0.06541229  0.16666667
   0.26792106  0.06541229  0.50000000
   0.26792106  0.06541229  0.83333331
   0.26792106  0.39874563  0.16666667
   0.26792106  0.39874563  0.50000000
   0.26792106  0.39874563  0.83333331
   0.26792106  0.73207897  0.16666667
   0.26792106  0.73207897  0.50000000
   0.26792106  0.73207897  0.83333331
   0.60125440  0.06541229  0.16666667
   0.60125440  0.06541229  0.50000000
   0.60125440  0.06541229  0.83333331
   0.60125440  0.39874563  0.16666667
   0.60125440  0.39874563  0.50000000
   0.60125440  0.39874563  0.83333331
   0.60125440  0.73207897  0.16666667
   0.60125440  0.73207897  0.50000000
   0.60125440  0.73207897  0.83333331
   0.93458772  0.06541229  0.16666667
   0.93458772  0.06541229  0.50000000
   0.93458772  0.06541229  0.83333331
   0.93458772  0.39874563  0.16666667
   0.93458772  0.39874563  0.50000000
   0.93458772  0.39874563  0.83333331
   0.93458772  0.73207897  0.16666667
   0.93458772  0.73207897  0.50000000
   0.93458772  0.73207897  0.83333331
   0.10125438  0.10125438  0.00000000
   0.10125438  0.10125438  0.33333334
   0.10125438  0.10125438  0.66666669
   0.10125438  0.43458772  0.00000000
   0.10125438  0.43458772  0.33333334
   0.10125438  0.43458772  0.66666669
   0.10125438  0.76792103  0.00000000
   0.10125438  0.76792103  0.33333334
   0.10125438  0.76792103  0.66666669
   0.43458772  0.10125438  0.00000000
   0.43458772  0.10125438  0.33333334
   0.43458772  0.10125438  0.66666669
   0.43458772  0.43458772  0.00000000
   0.43458772  0.43458772  0.33333334
   0.43458772  0.43458772  0.66666669
   0.43458772  0.76792103  0.00000000
   0.43458772  0.76792103  0.33333334
   0.43458772  0.76792103  0.66666669
   0.76792103  0.10125438  0.00000000
   0.76792103  0.10125438  0.33333334
   0.76792103  0.10125438  0.66666669
   0.76792103  0.43458772  0.00000000
   0.76792103  0.43458772  0.33333334
   0.76792103  0.43458772  0.66666669
   0.76792103  0.76792103  0.00000000
   0.76792103  0.76792103  0.33333334
   0.76792103  0.76792103  0.66666669
   0.23207895  0.23207895  0.00000000
   0.23207895  0.23207895  0.33333334
   0.23207895  0.23207895  0.66666669
   0.23207895  0.56541228  0.00000000
   0.23207895  0.56541228  0.33333334
   0.23207895  0.56541228  0.66666669
   0.23207895  0.89874560  0.00000000
   0.23207895  0.89874560  0.33333334
   0.23207895  0.89874560  0.66666669
   0.56541228  0.23207895  0.00000000
   0.56541228  0.23207895  0.33333334
   0.56541228  0.23207895  0.66666669
   0.56541228  0.56541228  0.00000000
   0.56541228  0.56541228  0.33333334
   0.56541228  0.56541228  0.66666669
   0.56541228  0.89874560  0.00000000
   0.56541228  0.89874560  0.33333334
   0.56541228  0.89874560  0.66666669
   0.89874560  0.23207895  0.00000000
   0.89874560  0.23207895  0.33333334
   0.89874560  0.23207895  0.66666669
   0.89874560  0.56541228  0.00000000
   0.89874560  0.56541228  0.33333334
   0.89874560  0.56541228  0.66666669
   0.89874560  0.89874560  0.00000000
   0.89874560  0.89874560  0.33333334
   0.89874560  0.89874560  0.66666669
 
 position of ions in cartesian coordinates  (Angst):
   0.00000000  0.00000000  0.00000000
   0.00000000  0.00000000  2.95300015
   0.00000000  0.00000000  5.90600032
   0.00000000  4.58400040  0.00000000
   0.00000000  4.58400040  2.95300015
   0.00000000  4.58400040  5.90600032
   0.00000000  9.16800082  0.00000000
   0.00000000  9.16800082  2.95300015
   0.00000000  9.16800082  5.90600032
   4.58400040  0.00000000  0.00000000
   4.58400040  0.00000000  2.95300015
   4.58400040  0.00000000  5.90600032
   4.58400040  4.58400040  0.00000000
   4.58400040  4.58400040  2.95300015
   4.58400040  4.58400040  5.90600032
   4.58400040  9.16800082  0.00000000
   4.58400040  9.16800082  2.95300015
   4.58400040  9.16800082  5.90600032
   9.16800082  0.00000000  0.00000000
   9.16800082  0.00000000  2.95300015
   9.16800082  0.00000000  5.90600032
   9.16800082  4.58400040  0.00000000
   9.16800082  4.58400040  2.95300015
   9.16800082  4.58400040  5.90600032
   9.16800082  9.16800082  0.00000000
   9.16800082  9.16800082  2.95300015
   9.16800082  9.16800082  5.90600032
   2.29200021  2.29200021  1.47650008
   2.29200021  2.29200021  4.42950010
   2.29200021  2.29200021  7.38249999
   2.29200021  6.87600040  1.47650008
   2.29200021  6.87600040  4.42950010
   2.29200021  6.87600040  7.38249999
   2.29200021 11.46000039  1.47650008
   2.29200021 11.46000039  4.42950010
   2.29200021 11.46000039  7.38249999
   6.87600040  2.29200021  1.47650008
   6.87600040  2.29200021  4.42950010
   6.87600040  2.29200021  7.38249999
   6.87600040  6.87600040  1.47650008
   6.87600040  6.87600040  4.42950010
   6.87600040  6.87600040  7.38249999
   6.87600040 11.46000039  1.47650008
   6.87600040 11.46000039  4.42950010
   6.87600040 11.46000039  7.38249999
  11.46000039  2.29200021  1.47650008
  11.46000039  2.29200021  4.42950010
  11.46000039  2.29200021  7.38249999
  11.46000039  6.87600040  1.47650008
  11.46000039  6.87600040  4.42950010
  11.46000039  6.87600040  7.38249999
  11.46000039 11.46000039  1.47650008
  11.46000039 11.46000039  4.42950010
  11.46000039 11.46000039  7.38249999
   0.89954986  3.68445063  1.47650008
   0.89954986  3.68445063  4.42950010
   0.89954986  3.68445063  7.38249999
   0.89954986  8.26845105  1.47650008
   0.89954986  8.26845105  4.42950010
   0.89954986  8.26845105  7.38249999
   0.89954986 12.85245104  1.47650008
   0.89954986 12.85245104  4.42950010
   0.89954986 12.85245104  7.38249999
   5.48355017  3.68445063  1.47650008
   5.48355017  3.68445063  4.42950010
   5.48355017  3.68445063  7.38249999
   5.48355017  8.26845105  1.47650008
   5.48355017  8.26845105  4.42950010
   5.48355017  8.26845105  7.38249999
   5.48355017 12.85245104  1.47650008
   5.48355017 12.85245104  4.42950010
   5.48355017 12.85245104  7.38249999
  10.06755057  3.68445063  1.47650008
  10.06755057  3.68445063  4.42950010
  10.06755057  3.68445063  7.38249999
  10.06755057  8.26845105  1.47650008
  10.06755057  8.26845105  4.42950010
  10.06755057  8.26845105  7.38249999
  10.06755057 12.85245104  1.47650008
  10.06755057 12.85245104  4.42950010
  10.06755057 12.85245104  7.38249999
   3.68445063  0.89954986  1.47650008
   3.68445063  0.89954986  4.42950010
   3.68445063  0.89954986  7.38249999
   3.68445063  5.48355017  1.47650008
   3.68445063  5.48355017  4.42950010
   3.68445063  5.48355017  7.38249999
   3.68445063 10.06755057  1.47650008
   3.68445063 10.06755057  4.42950010
   3.68445063 10.06755057  7.38249999
   8.26845105  0.89954986  1.47650008
   8.26845105  0.89954986  4.42950010
   8.26845105  0.89954986  7.38249999
   8.26845105  5.48355017  1.47650008
   8.26845105  5.48355017  4.42950010
   8.26845105  5.48355017  7.38249999
   8.26845105 10.06755057  1.47650008
   8.26845105 10.06755057  4.42950010
   8.26845105 10.06755057  7.38249999
  12.85245104  0.89954986  1.47650008
  12.85245104  0.89954986  4.42950010
  12.85245104  0.89954986  7.38249999
  12.85245104  5.48355017  1.47650008
  12.85245104  5.48355017  4.42950010
  12.85245104  5.48355017  7.38249999
  12.85245104 10.06755057  1.47650008
  12.85245104 10.06755057  4.42950010
  12.85245104 10.06755057  7.38249999
   1.39245033  1.39245033  0.00000000
   1.39245033  1.39245033  2.95300015
   1.39245033  1.39245033  5.90600032
   1.39245033  5.97645064  0.00000000
   1.39245033  5.97645064  2.95300015
   1.39245033  5.97645064  5.90600032
   1.39245033 10.56045064  0.00000000
   1.39245033 10.56045064  2.95300015
   1.39245033 10.56045064  5.90600032
   5.97645064  1.39245033  0.00000000
   5.97645064  1.39245033  2.95300015
   5.97645064  1.39245033  5.90600032
   5.97645064  5.97645064  0.00000000
   5.97645064  5.97645064  2.95300015
   5.97645064  5.97645064  5.90600032
   5.97645064 10.56045064  0.00000000
   5.97645064 10.56045064  2.95300015
   5.97645064 10.56045064  5.90600032
  10.56045064  1.39245033  0.00000000
  10.56045064  1.39245033  2.95300015
  10.56045064  1.39245033  5.90600032
  10.56045064  5.97645064  0.00000000
  10.56045064  5.97645064  2.95300015
  10.56045064  5.97645064  5.90600032
  10.56045064 10.56045064  0.00000000
  10.56045064 10.56045064  2.95300015
  10.56045064 10.56045064  5.90600032
   3.19154998  3.19154998  0.00000000
   3.19154998  3.19154998  2.95300015
   3.19154998  3.19154998  5.90600032
   3.19154998  7.77555017  0.00000000
   3.19154998  7.77555017  2.95300015
   3.19154998  7.77555017  5.90600032
   3.19154998 12.35955016  0.00000000
   3.19154998 12.35955016  2.95300015
   3.19154998 12.35955016  5.90600032
   7.77555017  3.19154998  0.00000000
   7.77555017  3.19154998  2.95300015
   7.77555017  3.19154998  5.90600032
   7.77555017  7.77555017  0.00000000
   7.77555017  7.77555017  2.95300015
   7.77555017  7.77555017  5.90600032
   7.77555017 12.35955016  0.00000000
   7.77555017 12.35955016  2.95300015
   7.77555017 12.35955016  5.90600032
  12.35955016  3.19154998  0.00000000
  12.35955016  3.19154998  2.95300015
  12.35955016  3.19154998  5.90600032
  12.35955016  7.77555017  0.00000000
  12.35955016  7.77555017  2.95300015
  12.35955016  7.77555017  5.90600032
  12.35955016 12.35955016  0.00000000
  12.35955016 12.35955016  2.95300015
  12.35955016 12.35955016  5.90600032
 


--------------------------------------------------------------------------------------------------------


 k-point   1 :   0.0000 0.0000 0.0000  plane waves:   32701
 k-point   2 :   0.1667 0.0000 0.0000  plane waves:   32748
 k-point   3 :   0.3333 0.0000 0.0000  plane waves:   32726
 k-point   4 :   0.5000 0.0000 0.0000  plane waves:   32714
 k-point   5 :   0.1667 0.1667 0.0000  plane waves:   32735
 k-point   6 :   0.3333 0.1667 0.0000  plane waves:   32749
 k-point   7 :   0.5000 0.1667 0.0000  plane waves:   32768
 k-point   8 :   0.3333 0.3333 0.0000  plane waves:   32754
 k-point   9 :   0.5000 0.3333 0.0000  plane waves:   32712
 k-point  10 :   0.5000 0.5000 0.0000  plane waves:   32696
 k-point  11 :   0.0000 0.0000 0.1667  plane waves:   32765
 k-point  12 :   0.1667 0.0000 0.1667  plane waves:   32734
 k-point  13 :   0.3333 0.0000 0.1667  plane waves:   32735
 k-point  14 :   0.5000 0.0000 0.1667  plane waves:   32714
 k-point  15 :   0.1667 0.1667 0.1667  plane waves:   32740
 k-point  16 :   0.3333 0.1667 0.1667  plane waves:   32724
 k-point  17 :   0.5000 0.1667 0.1667  plane waves:   32736
 k-point  18 :   0.3333 0.3333 0.1667  plane waves:   32745
 k-point  19 :   0.5000 0.3333 0.1667  plane waves:   32750
 k-point  20 :   0.5000 0.5000 0.1667  plane waves:   32740
 k-point  21 :   0.0000 0.0000 0.3333  plane waves:   32686
 k-point  22 :   0.1667 0.0000 0.3333  plane waves:   32715
 k-point  23 :   0.3333 0.0000 0.3333  plane waves:   32720
 k-point  24 :   0.5000 0.0000 0.3333  plane waves:   32714
 k-point  25 :   0.1667 0.1667 0.3333  plane waves:   32743
 k-point  26 :   0.3333 0.1667 0.3333  plane waves:   32740
 k-point  27 :   0.5000 0.1667 0.3333  plane waves:   32752
 k-point  28 :   0.3333 0.3333 0.3333  plane waves:   32774
 k-point  29 :   0.5000 0.3333 0.3333  plane waves:   32784
 k-point  30 :   0.5000 0.5000 0.3333  plane waves:   32788
 k-point  31 :   0.0000 0.0000 0.5000  plane waves:   32758
 k-point  32 :   0.1667 0.0000 0.5000  plane waves:   32748
 k-point  33 :   0.3333 0.0000 0.5000  plane waves:   32722
 k-point  34 :   0.5000 0.0000 0.5000  plane waves:   32744
 k-point  35 :   0.1667 0.1667 0.5000  plane waves:   32750
 k-point  36 :   0.3333 0.1667 0.5000  plane waves:   32760
 k-point  37 :   0.5000 0.1667 0.5000  plane waves:   32752
 k-point  38 :   0.3333 0.3333 0.5000  plane waves:   32720
 k-point  39 :   0.5000 0.3333 0.5000  plane waves:   32760
 k-point  40 :   0.5000 0.5000 0.5000  plane waves:   32784

 maximum and minimum number of plane-waves per node :     32788    32686

 maximum number of plane-waves:     32788
 maximum index in each direction: 
   IXMAX=   22   IYMAX=   22   IZMAX=   14
   IXMIN=  -23   IYMIN=  -23   IZMIN=  -15


 serial   3D FFT for wavefunctions
 parallel 3D FFT for charge:
    minimum data exchange during FFTs selected (reduces bandwidth)


 total amount of memory used by VASP MPI-rank0  4869600. kBytes
=======================================================================

   base      :      30000. kBytes
   nonl-proj :     462704. kBytes
   fftplans  :      17082. kBytes
   grid      :      36220. kBytes
   one-center:       2519. kBytes
   wavefun   :    4321075. kBytes
 
     INWAV:  cpu time    0.0000: real time    0.0000
 Broyden mixing: mesh for mixing (old mesh)
   NGX = 45   NGY = 45   NGZ = 29
  (NGX  =140   NGY  =140   NGZ  = 96)
  gives a total of  58725 points

 charge density for first step will be calculated from the start-wavefunctions


--------------------------------------------------------------------------------------------------------


 Maximum index for augmentation-charges         1347 (set IRDMAX)


--------------------------------------------------------------------------------------------------------


 initial charge from wavefunction
 First call to EWALD:  gamma=   0.149
 Maximum number of real-space cells 2x 2x 4
 Maximum number of reciprocal cells 3x 3x 2

    FEWALD:  cpu time    0.0128: real time    0.0129


--------------------------------------- Iteration      1(   1)  ---------------------------------------


    POTLOK:  cpu time    0.1450: real time    0.1616
    SETDIJ:  cpu time    0.0359: real time    0.0431
atom =   1  type =  1  l = 2
 
 onsite density matrix
 
spin component  1
 
  0.2058 -0.0000  0.0001  0.0000  0.0000
 -0.0000  0.2054  0.0000 -0.0001 -0.0000
  0.0001  0.0000  0.2056 -0.0000 -0.0000
  0.0000 -0.0001 -0.0000  0.2054  0.0000
  0.0000 -0.0000 -0.0000  0.0000  0.2056
 
spin component  2
 
  0.2058 -0.0000  0.0001  0.0000  0.0000
 -0.0000  0.2054  0.0000 -0.0001 -0.0000
  0.0001  0.0000  0.2056 -0.0000 -0.0000
  0.0000 -0.0001 -0.0000  0.2054  0.0000
  0.0000 -0.0000 -0.0000  0.0000  0.2056
 
 occupancies and eigenvectors
 
  o =  0.2053  v =  0.0000 -0.7071 -0.0000 -0.7071  0.0000  0.0000  0.0000  0.0000  0.0000  0.0000      0.0000  0.0000  0.0000  0.0000  0.0000  0.0000  0.0000  0.0000  0.0000  0.0000
  o =  0.2053  v =  0.0000  0.0000  0.0000  0.0000  0.0000  0.0000 -0.7071 -0.0000 -0.7071  0.0000      0.0000  0.0000  0.0000  0.0000  0.0000  0.0000  0.0000  0.0000  0.0000  0.0000
  o =  0.2055  v =  0.0000  0.0000  0.0000  0.0000  0.0000  0.5363 -0.0000 -0.8440  0.0000 -0.0000      0.0000  0.0000  0.0000  0.0000  0.0000  0.0000  0.0000  0.0000  0.0000  0.0000
  o =  0.2055  v =  0.5363 -0.0000 -0.8440  0.0000 -0.0000  0.0000  0.0000  0.0000  0.0000  0.0000      0.0000  0.0000  0.0000  0.0000  0.0000  0.0000  0.0000  0.0000  0.0000  0.0000
  o =  0.2056  v = -0.0000 -0.7071  0.0000  0.7071  0.0000  0.0000  0.0000  0.0000  0.0000  0.0000      0.0000  0.0000  0.0000  0.0000  0.0000  0.0000  0.0000  0.0000  0.0000  0.0000
  o =  0.2056  v =  0.0000  0.0000  0.0000  0.0000  0.0000 -0.0000 -0.7071  0.0000  0.7071  0.0000      0.0000  0.0000  0.0000  0.0000  0.0000  0.0000  0.0000  0.0000  0.0000  0.0000
  o =  0.2056  v =  0.0000  0.0000 -0.0000 -0.0000  1.0000  0.0000  0.0000  0.0000  0.0000  0.0000      0.0000  0.0000  0.0000  0.0000  0.0000  0.0000  0.0000  0.0000  0.0000  0.0000
  o =  0.2056  v =  0.0000  0.0000  0.0000  0.0000  0.0000  0.0000  0.0000 -0.0000 -0.0000  1.0000      0.0000  0.0000  0.0000  0.0000  0.0000  0.0000  0.0000  0.0000  0.0000  0.0000
  o =  0.2059  v = -0.8440  0.0000 -0.5363 -0.0000  0.0000  0.0000  0.0000  0.0000  0.0000  0.0000      0.0000  0.0000  0.0000  0.0000  0.0000  0.0000  0.0000  0.0000  0.0000  0.0000
  o =  0.2059  v =  0.0000  0.0000  0.0000  0.0000  0.0000 -0.8440  0.0000 -0.5363 -0.0000  0.0000      0.0000  0.0000  0.0000  0.0000  0.0000  0.0000  0.0000  0.0000  0.0000  0.0000
 
atom =   2  type =  1  l = 2
 
 onsite density matrix
 
spin component  1
 
  0.2058 -0.0000  0.0001  0.0000  0.0000
 -0.0000  0.2054  0.0000 -0.0001  0.0000
  0.0001  0.0000  0.2056 -0.0000 -0.0000
  0.0000 -0.0001 -0.0000  0.2054  0.0000
  0.0000  0.0000 -0.0000  0.0000  0.2056
 
spin component  2
 
  0.2058 -0.0000  0.0001  0.0000  0.0000
 -0.0000  0.2054  0.0000 -0.0001  0.0000
  0.0001  0.0000  0.2056 -0.0000 -0.0000
  0.0000 -0.0001 -0.0000  0.2054  0.0000
  0.0000  0.0000 -0.0000  0.0000  0.2056
 
 occupancies and eigenvectors
 
  o =  0.2053  v =  0.0000 -0.7071 -0.0000 -0.7071  0.0000  0.0000  0.0000  0.0000  0.0000  0.0000      0.0000  0.0000  0.0000  0.0000  0.0000  0.0000  0.0000  0.0000  0.0000  0.0000
  o =  0.2053  v =  0.0000  0.0000  0.0000  0.0000  0.0000  0.0000 -0.7071 -0.0000 -0.7071  0.0000      0.0000  0.0000  0.0000  0.0000  0.0000  0.0000  0.0000  0.0000  0.0000  0.0000
  o =  0.2055  v =  0.0000  0.0000  0.0000  0.0000  0.0000  0.5363 -0.0000 -0.8440  0.0000 -0.0000      0.0000  0.0000  0.0000  0.0000  0.0000  0.0000  0.0000  0.0000  0.0000  0.0000
  o =  0.2055  v =  0.5363 -0.0000 -0.8440  0.0000 -0.0000  0.0000  0.0000  0.0000  0.0000  0.0000      0.0000  0.0000  0.0000  0.0000  0.0000  0.0000  0.0000  0.0000  0.0000  0.0000
  o =  0.2056  v = -0.0000 -0.7071  0.0000  0.7071  0.0000  0.0000  0.0000  0.0000  0.0000  0.0000      0.0000  0.0000  0.0000  0.0000  0.0000  0.0000  0.0000  0.0000  0.0000  0.0000
  o =  0.2056  v =  0.0000  0.0000  0.0000  0.0000  0.0000 -0.0000 -0.7071  0.0000  0.7071  0.0000      0.0000  0.0000  0.0000  0.0000  0.0000  0.0000  0.0000  0.0000  0.0000  0.0000
  o =  0.2056  v =  0.0000  0.0000 -0.0000 -0.0000  1.0000  0.0000  0.0000  0.0000  0.0000  0.0000      0.0000  0.0000  0.0000  0.0000  0.0000  0.0000  0.0000  0.0000  0.0000  0.0000
  o =  0.2056  v =  0.0000  0.0000  0.0000  0.0000  0.0000  0.0000  0.0000 -0.0000 -0.0000  1.0000      0.0000  0.0000  0.0000  0.0000  0.0000  0.0000  0.0000  0.0000  0.0000  0.0000
  o =  0.2059  v = -0.8440  0.0000 -0.5363 -0.0000  0.0000  0.0000  0.0000  0.0000  0.0000  0.0000      0.0000  0.0000  0.0000  0.0000  0.0000  0.0000  0.0000  0.0000  0.0000  0.0000
  o =  0.2059  v =  0.0000  0.0000  0.0000  0.0000  0.0000 -0.8440  0.0000 -0.5363 -0.0000  0.0000      0.0000  0.0000  0.0000  0.0000  0.0000  0.0000  0.0000  0.0000  0.0000  0.0000
 
atom =   3  type =  1  l = 2
 
 onsite density matrix
 
spin component  1
 
  0.2058 -0.0000  0.0001  0.0000  0.0000
 -0.0000  0.2054  0.0000 -0.0001 -0.0000
  0.0001  0.0000  0.2056  0.0000  0.0000
  0.0000 -0.0001  0.0000  0.2054  0.0000
  0.0000 -0.0000  0.0000  0.0000  0.2056
 
spin component  2
 
  0.2058 -0.0000  0.0001  0.0000  0.0000
 -0.0000  0.2054  0.0000 -0.0001 -0.0000
  0.0001  0.0000  0.2056  0.0000  0.0000
  0.0000 -0.0001  0.0000  0.2054  0.0000
  0.0000 -0.0000  0.0000  0.0000  0.2056
 
 occupancies and eigenvectors
 
  o =  0.2053  v =  0.0000 -0.7071 -0.0000 -0.7071 -0.0000  0.0000  0.0000  0.0000  0.0000  0.0000      0.0000  0.0000  0.0000  0.0000  0.0000  0.0000  0.0000  0.0000  0.0000  0.0000
  o =  0.2053  v =  0.0000  0.0000  0.0000  0.0000  0.0000  0.0000 -0.7071 -0.0000 -0.7071 -0.0000      0.0000  0.0000  0.0000  0.0000  0.0000  0.0000  0.0000  0.0000  0.0000  0.0000
  o =  0.2055  v =  0.0000  0.0000  0.0000  0.0000  0.0000  0.5363 -0.0000 -0.8440  0.0000  0.0000      0.0000  0.0000  0.0000  0.0000  0.0000  0.0000  0.0000  0.0000  0.0000  0.0000
  o =  0.2055  v =  0.5363 -0.0000 -0.8440  0.0000  0.0000  0.0000  0.0000  0.0000  0.0000  0.0000      0.0000  0.0000  0.0000  0.0000  0.0000  0.0000  0.0000  0.0000  0.0000  0.0000
  o =  0.2056  v =  0.0000  0.7071 -0.0000 -0.7071  0.0000  0.0000  0.0000  0.0000  0.0000  0.0000      0.0000  0.0000  0.0000  0.0000  0.0000  0.0000  0.0000  0.0000  0.0000  0.0000
  o =  0.2056  v =  0.0000  0.0000  0.0000  0.0000  0.0000  0.0000  0.7071 -0.0000 -0.7071  0.0000      0.0000  0.0000  0.0000  0.0000  0.0000  0.0000  0.0000  0.0000  0.0000  0.0000
  o =  0.2056  v = -0.0000 -0.0000  0.0000  0.0000  1.0000  0.0000  0.0000  0.0000  0.0000  0.0000      0.0000  0.0000  0.0000  0.0000  0.0000  0.0000  0.0000  0.0000  0.0000  0.0000
  o =  0.2056  v =  0.0000  0.0000  0.0000  0.0000  0.0000 -0.0000 -0.0000  0.0000  0.0000  1.0000      0.0000  0.0000  0.0000  0.0000  0.0000  0.0000  0.0000  0.0000  0.0000  0.0000
  o =  0.2059  v = -0.8440  0.0000 -0.5363 -0.0000 -0.0000  0.0000  0.0000  0.0000  0.0000  0.0000      0.0000  0.0000  0.0000  0.0000  0.0000  0.0000  0.0000  0.0000  0.0000  0.0000
  o =  0.2059  v =  0.0000  0.0000  0.0000  0.0000  0.0000 -0.8440  0.0000 -0.5363 -0.0000 -0.0000      0.0000  0.0000  0.0000  0.0000  0.0000  0.0000  0.0000  0.0000  0.0000  0.0000
 
atom =   4  type =  1  l = 2
 
 onsite density matrix
 
spin component  1
 
  0.2058 -0.0000  0.0001  0.0000 -0.0000
 -0.0000  0.2054 -0.0000 -0.0001 -0.0000
  0.0001 -0.0000  0.2056 -0.0000 -0.0000
  0.0000 -0.0001 -0.0000  0.2054 -0.0000
 -0.0000 -0.0000 -0.0000 -0.0000  0.2056
 
spin component  2
 
  0.2058 -0.0000  0.0001  0.0000 -0.0000
 -0.0000  0.2054 -0.0000 -0.0001 -0.0000
  0.0001 -0.0000  0.2056 -0.0000 -0.0000
  0.0000 -0.0001 -0.0000  0.2054 -0.0000
 -0.0000 -0.0000 -0.0000 -0.0000  0.2056
 
 occupancies and eigenvectors
 
  o =  0.2053  v =  0.0000  0.7071 -0.0000  0.7071 -0.0000  0.0000  0.0000  0.0000  0.0000  0.0000      0.0000  0.0000  0.0000  0.0000  0.0000  0.0000  0.0000  0.0000  0.0000  0.0000
  o =  0.2053  v =  0.0000  0.0000  0.0000  0.0000  0.0000  0.0000  0.7071 -0.0000  0.7071 -0.0000      0.0000  0.0000  0.0000  0.0000  0.0000  0.0000  0.0000  0.0000  0.0000  0.0000
  o =  0.2055  v =  0.0000  0.0000  0.0000  0.0000  0.0000  0.5363  0.0000 -0.8440 -0.0000 -0.0000      0.0000  0.0000  0.0000  0.0000  0.0000  0.0000  0.0000  0.0000  0.0000  0.0000
  o =  0.2055  v =  0.5363  0.0000 -0.8440 -0.0000 -0.0000  0.0000  0.0000  0.0000  0.0000  0.0000      0.0000  0.0000  0.0000  0.0000  0.0000  0.0000  0.0000  0.0000  0.0000  0.0000
  o =  0.2056  v = -0.0000  0.7071  0.0000 -0.7071 -0.0000  0.0000  0.0000  0.0000  0.0000  0.0000      0.0000  0.0000  0.0000  0.0000  0.0000  0.0000  0.0000  0.0000  0.0000  0.0000
  o =  0.2056  v =  0.0000  0.0000  0.0000  0.0000  0.0000 -0.0000  0.7071  0.0000 -0.7071 -0.0000      0.0000  0.0000  0.0000  0.0000  0.0000  0.0000  0.0000  0.0000  0.0000  0.0000
  o =  0.2056  v = -0.0000 -0.0000  0.0000  0.0000 -1.0000  0.0000  0.0000  0.0000  0.0000  0.0000      0.0000  0.0000  0.0000  0.0000  0.0000  0.0000  0.0000  0.0000  0.0000  0.0000
  o =  0.2056  v =  0.0000  0.0000  0.0000  0.0000  0.0000 -0.0000 -0.0000  0.0000  0.0000 -1.0000      0.0000  0.0000  0.0000  0.0000  0.0000  0.0000  0.0000  0.0000  0.0000  0.0000
  o =  0.2059  v = -0.8440 -0.0000 -0.5363 -0.0000  0.0000  0.0000  0.0000  0.0000  0.0000  0.0000      0.0000  0.0000  0.0000  0.0000  0.0000  0.0000  0.0000  0.0000  0.0000  0.0000
  o =  0.2059  v =  0.0000  0.0000  0.0000  0.0000  0.0000 -0.8440 -0.0000 -0.5363 -0.0000  0.0000      0.0000  0.0000  0.0000  0.0000  0.0000  0.0000  0.0000  0.0000  0.0000  0.0000
 
atom =   5  type =  1  l = 2
 
 onsite density matrix
 
spin component  1
 
  0.2058 -0.0000  0.0001 -0.0000  0.0000
 -0.0000  0.2054  0.0000 -0.0001  0.0000
  0.0001  0.0000  0.2056 -0.0000  0.0000
 -0.0000 -0.0001 -0.0000  0.2054 -0.0000
  0.0000  0.0000  0.0000 -0.0000  0.2056
 
spin component  2
 
  0.2058 -0.0000  0.0001 -0.0000  0.0000
 -0.0000  0.2054  0.0000 -0.0001  0.0000
  0.0001  0.0000  0.2056 -0.0000  0.0000
 -0.0000 -0.0001 -0.0000  0.2054 -0.0000
  0.0000  0.0000  0.0000 -0.0000  0.2056
 
 occupancies and eigenvectors
 
  o =  0.2053  v =  0.0000 -0.7071 -0.0000 -0.7071 -0.0000  0.0000  0.0000  0.0000  0.0000  0.0000      0.0000  0.0000  0.0000  0.0000  0.0000  0.0000  0.0000  0.0000  0.0000  0.0000
  o =  0.2053  v =  0.0000  0.0000  0.0000  0.0000  0.0000  0.0000 -0.7071 -0.0000 -0.7071 -0.0000      0.0000  0.0000  0.0000  0.0000  0.0000  0.0000  0.0000  0.0000  0.0000  0.0000
  o =  0.2055  v =  0.0000  0.0000  0.0000  0.0000  0.0000  0.5363 -0.0000 -0.8440  0.0000  0.0000      0.0000  0.0000  0.0000  0.0000  0.0000  0.0000  0.0000  0.0000  0.0000  0.0000
  o =  0.2055  v =  0.5363 -0.0000 -0.8440  0.0000  0.0000  0.0000  0.0000  0.0000  0.0000  0.0000      0.0000  0.0000  0.0000  0.0000  0.0000  0.0000  0.0000  0.0000  0.0000  0.0000
  o =  0.2056  v =  0.0000  0.7071 -0.0000 -0.7071 -0.0000  0.0000  0.0000  0.0000  0.0000  0.0000      0.0000  0.0000  0.0000  0.0000  0.0000  0.0000  0.0000  0.0000  0.0000  0.0000
  o =  0.2056  v =  0.0000  0.0000  0.0000  0.0000  0.0000  0.0000  0.7071 -0.0000 -0.7071 -0.0000      0.0000  0.0000  0.0000  0.0000  0.0000  0.0000  0.0000  0.0000  0.0000  0.0000
  o =  0.2056  v =  0.0000 -0.0000 -0.0000  0.0000 -1.0000  0.0000  0.0000  0.0000  0.0000  0.0000      0.0000  0.0000  0.0000  0.0000  0.0000  0.0000  0.0000  0.0000  0.0000  0.0000
  o =  0.2056  v =  0.0000  0.0000  0.0000  0.0000  0.0000  0.0000 -0.0000 -0.0000  0.0000 -1.0000      0.0000  0.0000  0.0000  0.0000  0.0000  0.0000  0.0000  0.0000  0.0000  0.0000
  o =  0.2059  v = -0.8440  0.0000 -0.5363 -0.0000 -0.0000  0.0000  0.0000  0.0000  0.0000  0.0000      0.0000  0.0000  0.0000  0.0000  0.0000  0.0000  0.0000  0.0000  0.0000  0.0000
  o =  0.2059  v =  0.0000  0.0000  0.0000  0.0000  0.0000 -0.8440  0.0000 -0.5363 -0.0000 -0.0000      0.0000  0.0000  0.0000  0.0000  0.0000  0.0000  0.0000  0.0000  0.0000  0.0000
 
atom =   6  type =  1  l = 2
 
 onsite density matrix
 
spin component  1
 
  0.2058 -0.0000  0.0001 -0.0000 -0.0000
 -0.0000  0.2054  0.0000 -0.0001  0.0000
  0.0001  0.0000  0.2056 -0.0000 -0.0000
 -0.0000 -0.0001 -0.0000  0.2054  0.0000
 -0.0000  0.0000 -0.0000  0.0000  0.2056
 
spin component  2
 
  0.2058 -0.0000  0.0001 -0.0000 -0.0000
 -0.0000  0.2054  0.0000 -0.0001  0.0000
  0.0001  0.0000  0.2056 -0.0000 -0.0000
 -0.0000 -0.0001 -0.0000  0.2054  0.0000
 -0.0000  0.0000 -0.0000  0.0000  0.2056
 
 occupancies and eigenvectors
 
  o =  0.2053  v =  0.0000 -0.7071 -0.0000 -0.7071  0.0000  0.0000  0.0000  0.0000  0.0000  0.0000      0.0000  0.0000  0.0000  0.0000  0.0000  0.0000  0.0000  0.0000  0.0000  0.0000
  o =  0.2053  v =  0.0000  0.0000  0.0000  0.0000  0.0000  0.0000 -0.7071 -0.0000 -0.7071  0.0000      0.0000  0.0000  0.0000  0.0000  0.0000  0.0000  0.0000  0.0000  0.0000  0.0000
  o =  0.2055  v =  0.0000  0.0000  0.0000  0.0000  0.0000  0.5363 -0.0000 -0.8440  0.0000 -0.0000      0.0000  0.0000  0.0000  0.0000  0.0000  0.0000  0.0000  0.0000  0.0000  0.0000
  o =  0.2055  v =  0.5363 -0.0000 -0.8440  0.0000 -0.0000  0.0000  0.0000  0.0000  0.0000  0.0000      0.0000  0.0000  0.0000  0.0000  0.0000  0.0000  0.0000  0.0000  0.0000  0.0000
  o =  0.2056  v = -0.0000 -0.7071  0.0000  0.7071  0.0000  0.0000  0.0000  0.0000  0.0000  0.0000      0.0000  0.0000  0.0000  0.0000  0.0000  0.0000  0.0000  0.0000  0.0000  0.0000
  o =  0.2056  v =  0.0000  0.0000  0.0000  0.0000  0.0000 -0.0000 -0.7071  0.0000  0.7071  0.0000      0.0000  0.0000  0.0000  0.0000  0.0000  0.0000  0.0000  0.0000  0.0000  0.0000
  o =  0.2056  v =  0.0000  0.0000 -0.0000  0.0000  1.0000  0.0000  0.0000  0.0000  0.0000  0.0000      0.0000  0.0000  0.0000  0.0000  0.0000  0.0000  0.0000  0.0000  0.0000  0.0000
  o =  0.2056  v =  0.0000  0.0000  0.0000  0.0000  0.0000  0.0000  0.0000 -0.0000  0.0000  1.0000      0.0000  0.0000  0.0000  0.0000  0.0000  0.0000  0.0000  0.0000  0.0000  0.0000
  o =  0.2059  v = -0.8440  0.0000 -0.5363 -0.0000  0.0000  0.0000  0.0000  0.0000  0.0000  0.0000      0.0000  0.0000  0.0000  0.0000  0.0000  0.0000  0.0000  0.0000  0.0000  0.0000
  o =  0.2059  v =  0.0000  0.0000  0.0000  0.0000  0.0000 -0.8440  0.0000 -0.5363 -0.0000  0.0000      0.0000  0.0000  0.0000  0.0000  0.0000  0.0000  0.0000  0.0000  0.0000  0.0000
 
atom =   7  type =  1  l = 2
 
 onsite density matrix
 
spin component  1
 
  0.2058  0.0000  0.0001  0.0000  0.0000
  0.0000  0.2054 -0.0000 -0.0001 -0.0000
  0.0001 -0.0000  0.2056 -0.0000  0.0000
  0.0000 -0.0001 -0.0000  0.2054  0.0000
  0.0000 -0.0000  0.0000  0.0000  0.2056
 
spin component  2
 
  0.2058  0.0000  0.0001  0.0000  0.0000
  0.0000  0.2054 -0.0000 -0.0001 -0.0000
  0.0001 -0.0000  0.2056 -0.0000  0.0000
  0.0000 -0.0001 -0.0000  0.2054  0.0000
  0.0000 -0.0000  0.0000  0.0000  0.2056
 
 occupancies and eigenvectors
 
  o =  0.2053  v = -0.0000 -0.7071  0.0000 -0.7071 -0.0000  0.0000  0.0000  0.0000  0.0000  0.0000      0.0000  0.0000  0.0000  0.0000  0.0000  0.0000  0.0000  0.0000  0.0000  0.0000
  o =  0.2053  v =  0.0000  0.0000  0.0000  0.0000  0.0000 -0.0000 -0.7071  0.0000 -0.7071 -0.0000      0.0000  0.0000  0.0000  0.0000  0.0000  0.0000  0.0000  0.0000  0.0000  0.0000
  o =  0.2055  v =  0.0000  0.0000  0.0000  0.0000  0.0000 -0.5363 -0.0000  0.8440  0.0000 -0.0000      0.0000  0.0000  0.0000  0.0000  0.0000  0.0000  0.0000  0.0000  0.0000  0.0000
  o =  0.2055  v = -0.5363 -0.0000  0.8440  0.0000 -0.0000  0.0000  0.0000  0.0000  0.0000  0.0000      0.0000  0.0000  0.0000  0.0000  0.0000  0.0000  0.0000  0.0000  0.0000  0.0000
  o =  0.2056  v =  0.0000 -0.7071 -0.0000  0.7071 -0.0000  0.0000  0.0000  0.0000  0.0000  0.0000      0.0000  0.0000  0.0000  0.0000  0.0000  0.0000  0.0000  0.0000  0.0000  0.0000
  o =  0.2056  v =  0.0000  0.0000  0.0000  0.0000  0.0000  0.0000 -0.7071 -0.0000  0.7071 -0.0000      0.0000  0.0000  0.0000  0.0000  0.0000  0.0000  0.0000  0.0000  0.0000  0.0000
  o =  0.2056  v =  0.0000  0.0000 -0.0000 -0.0000 -1.0000  0.0000  0.0000  0.0000  0.0000  0.0000      0.0000  0.0000  0.0000  0.0000  0.0000  0.0000  0.0000  0.0000  0.0000  0.0000
  o =  0.2056  v =  0.0000  0.0000  0.0000  0.0000  0.0000  0.0000  0.0000 -0.0000 -0.0000 -1.0000      0.0000  0.0000  0.0000  0.0000  0.0000  0.0000  0.0000  0.0000  0.0000  0.0000
  o =  0.2059  v = -0.8440 -0.0000 -0.5363  0.0000 -0.0000  0.0000  0.0000  0.0000  0.0000  0.0000      0.0000  0.0000  0.0000  0.0000  0.0000  0.0000  0.0000  0.0000  0.0000  0.0000
  o =  0.2059  v =  0.0000  0.0000  0.0000  0.0000  0.0000 -0.8440 -0.0000 -0.5363  0.0000 -0.0000      0.0000  0.0000  0.0000  0.0000  0.0000  0.0000  0.0000  0.0000  0.0000  0.0000
 
atom =   8  type =  1  l = 2
 
 onsite density matrix
 
spin component  1
 
  0.2058  0.0000  0.0001  0.0000  0.0000
  0.0000  0.2054 -0.0000 -0.0001 -0.0000
  0.0001 -0.0000  0.2056 -0.0000  0.0000
  0.0000 -0.0001 -0.0000  0.2054  0.0000
  0.0000 -0.0000  0.0000  0.0000  0.2056
 
spin component  2
 
  0.2058  0.0000  0.0001  0.0000  0.0000
  0.0000  0.2054 -0.0000 -0.0001 -0.0000
  0.0001 -0.0000  0.2056 -0.0000  0.0000
  0.0000 -0.0001 -0.0000  0.2054  0.0000
  0.0000 -0.0000  0.0000  0.0000  0.2056
 
 occupancies and eigenvectors
 
  o =  0.2053  v =  0.0000 -0.7071  0.0000 -0.7071 -0.0000  0.0000  0.0000  0.0000  0.0000  0.0000      0.0000  0.0000  0.0000  0.0000  0.0000  0.0000  0.0000  0.0000  0.0000  0.0000
  o =  0.2053  v =  0.0000  0.0000  0.0000  0.0000  0.0000  0.0000 -0.7071  0.0000 -0.7071 -0.0000      0.0000  0.0000  0.0000  0.0000  0.0000  0.0000  0.0000  0.0000  0.0000  0.0000
  o =  0.2055  v =  0.0000  0.0000  0.0000  0.0000  0.0000 -0.5363 -0.0000  0.8440  0.0000 -0.0000      0.0000  0.0000  0.0000  0.0000  0.0000  0.0000  0.0000  0.0000  0.0000  0.0000
  o =  0.2055  v = -0.5363 -0.0000  0.8440  0.0000 -0.0000  0.0000  0.0000  0.0000  0.0000  0.0000      0.0000  0.0000  0.0000  0.0000  0.0000  0.0000  0.0000  0.0000  0.0000  0.0000
  o =  0.2056  v =  0.0000 -0.7071 -0.0000  0.7071 -0.0000  0.0000  0.0000  0.0000  0.0000  0.0000      0.0000  0.0000  0.0000  0.0000  0.0000  0.0000  0.0000  0.0000  0.0000  0.0000
  o =  0.2056  v =  0.0000  0.0000  0.0000  0.0000  0.0000  0.0000 -0.7071 -0.0000  0.7071 -0.0000      0.0000  0.0000  0.0000  0.0000  0.0000  0.0000  0.0000  0.0000  0.0000  0.0000
  o =  0.2056  v = -0.0000 -0.0000  0.0000  0.0000  1.0000  0.0000  0.0000  0.0000  0.0000  0.0000      0.0000  0.0000  0.0000  0.0000  0.0000  0.0000  0.0000  0.0000  0.0000  0.0000
  o =  0.2056  v =  0.0000  0.0000  0.0000  0.0000  0.0000 -0.0000 -0.0000  0.0000  0.0000  1.0000      0.0000  0.0000  0.0000  0.0000  0.0000  0.0000  0.0000  0.0000  0.0000  0.0000
  o =  0.2059  v = -0.8440 -0.0000 -0.5363  0.0000 -0.0000  0.0000  0.0000  0.0000  0.0000  0.0000      0.0000  0.0000  0.0000  0.0000  0.0000  0.0000  0.0000  0.0000  0.0000  0.0000
  o =  0.2059  v =  0.0000  0.0000  0.0000  0.0000  0.0000 -0.8440 -0.0000 -0.5363  0.0000 -0.0000      0.0000  0.0000  0.0000  0.0000  0.0000  0.0000  0.0000  0.0000  0.0000  0.0000
 
atom =   9  type =  1  l = 2
 
 onsite density matrix
 
spin component  1
 
  0.2058  0.0000  0.0001  0.0000  0.0000
  0.0000  0.2054  0.0000 -0.0001  0.0000
  0.0001  0.0000  0.2056 -0.0000 -0.0000
  0.0000 -0.0001 -0.0000  0.2054  0.0000
  0.0000  0.0000 -0.0000  0.0000  0.2056
 
spin component  2
 
  0.2058  0.0000  0.0001  0.0000  0.0000
  0.0000  0.2054  0.0000 -0.0001  0.0000
  0.0001  0.0000  0.2056 -0.0000 -0.0000
  0.0000 -0.0001 -0.0000  0.2054  0.0000
  0.0000  0.0000 -0.0000  0.0000  0.2056
 
 occupancies and eigenvectors
 
  o =  0.2053  v = -0.0000 -0.7071  0.0000 -0.7071 -0.0000  0.0000  0.0000  0.0000  0.0000  0.0000      0.0000  0.0000  0.0000  0.0000  0.0000  0.0000  0.0000  0.0000  0.0000  0.0000
  o =  0.2053  v =  0.0000  0.0000  0.0000  0.0000  0.0000 -0.0000 -0.7071  0.0000 -0.7071 -0.0000      0.0000  0.0000  0.0000  0.0000  0.0000  0.0000  0.0000  0.0000  0.0000  0.0000
[...]
 -0.0001 -0.0000  0.2056 -0.0000  0.0000
 -0.0000  0.0001 -0.0000  0.2054  0.0000
  0.0000  0.0000  0.0000  0.0000  0.2056
 
 occupancies and eigenvectors
 
  o =  0.2053  v = -0.0000 -0.7071 -0.0000  0.7071  0.0000  0.0000  0.0000  0.0000  0.0000  0.0000      0.0000  0.0000  0.0000  0.0000  0.0000  0.0000  0.0000  0.0000  0.0000  0.0000
  o =  0.2053  v =  0.0000  0.0000  0.0000  0.0000  0.0000 -0.0000 -0.7071 -0.0000  0.7071  0.0000      0.0000  0.0000  0.0000  0.0000  0.0000  0.0000  0.0000  0.0000  0.0000  0.0000
  o =  0.2055  v =  0.0000  0.0000  0.0000  0.0000  0.0000 -0.5363 -0.0000 -0.8440 -0.0000  0.0000      0.0000  0.0000  0.0000  0.0000  0.0000  0.0000  0.0000  0.0000  0.0000  0.0000
  o =  0.2055  v = -0.5363 -0.0000 -0.8440 -0.0000  0.0000  0.0000  0.0000  0.0000  0.0000  0.0000      0.0000  0.0000  0.0000  0.0000  0.0000  0.0000  0.0000  0.0000  0.0000  0.0000
  o =  0.2056  v = -0.0000  0.7071 -0.0000  0.7071 -0.0000  0.0000  0.0000  0.0000  0.0000  0.0000      0.0000  0.0000  0.0000  0.0000  0.0000  0.0000  0.0000  0.0000  0.0000  0.0000
  o =  0.2056  v =  0.0000  0.0000  0.0000  0.0000  0.0000 -0.0000  0.7071 -0.0000  0.7071 -0.0000      0.0000  0.0000  0.0000  0.0000  0.0000  0.0000  0.0000  0.0000  0.0000  0.0000
  o =  0.2056  v =  0.0000  0.0000  0.0000  0.0000  1.0000  0.0000  0.0000  0.0000  0.0000  0.0000      0.0000  0.0000  0.0000  0.0000  0.0000  0.0000  0.0000  0.0000  0.0000  0.0000
  o =  0.2056  v =  0.0000  0.0000  0.0000  0.0000  0.0000  0.0000  0.0000  0.0000  0.0000  1.0000      0.0000  0.0000  0.0000  0.0000  0.0000  0.0000  0.0000  0.0000  0.0000  0.0000
  o =  0.2059  v = -0.8440 -0.0000  0.5363 -0.0000  0.0000  0.0000  0.0000  0.0000  0.0000  0.0000      0.0000  0.0000  0.0000  0.0000  0.0000  0.0000  0.0000  0.0000  0.0000  0.0000
  o =  0.2059  v =  0.0000  0.0000  0.0000  0.0000  0.0000 -0.8440 -0.0000  0.5363 -0.0000  0.0000      0.0000  0.0000  0.0000  0.0000  0.0000  0.0000  0.0000  0.0000  0.0000  0.0000
 
atom =  48  type =  1  l = 2
 
 onsite density matrix
 
spin component  1
 
  0.2058 -0.0000 -0.0001 -0.0000 -0.0000
 -0.0000  0.2054  0.0000  0.0001  0.0000
 -0.0001  0.0000  0.2056  0.0000 -0.0000
 -0.0000  0.0001  0.0000  0.2054 -0.0000
 -0.0000  0.0000 -0.0000 -0.0000  0.2056
 
spin component  2
 
  0.2058 -0.0000 -0.0001 -0.0000 -0.0000
 -0.0000  0.2054  0.0000  0.0001  0.0000
 -0.0001  0.0000  0.2056  0.0000 -0.0000
 -0.0000  0.0001  0.0000  0.2054 -0.0000
 -0.0000  0.0000 -0.0000 -0.0000  0.2056
 
 occupancies and eigenvectors
 
  o =  0.2053  v =  0.0000  0.7071  0.0000 -0.7071 -0.0000  0.0000  0.0000  0.0000  0.0000  0.0000      0.0000  0.0000  0.0000  0.0000  0.0000  0.0000  0.0000  0.0000  0.0000  0.0000
  o =  0.2053  v =  0.0000  0.0000  0.0000  0.0000  0.0000  0.0000  0.7071  0.0000 -0.7071 -0.0000      0.0000  0.0000  0.0000  0.0000  0.0000  0.0000  0.0000  0.0000  0.0000  0.0000
  o =  0.2055  v =  0.0000  0.0000  0.0000  0.0000  0.0000  0.5363  0.0000  0.8440  0.0000  0.0000      0.0000  0.0000  0.0000  0.0000  0.0000  0.0000  0.0000  0.0000  0.0000  0.0000
  o =  0.2055  v =  0.5363  0.0000  0.8440  0.0000  0.0000  0.0000  0.0000  0.0000  0.0000  0.0000      0.0000  0.0000  0.0000  0.0000  0.0000  0.0000  0.0000  0.0000  0.0000  0.0000
  o =  0.2056  v =  0.0000  0.0000  0.0000  0.0000  0.0000  0.0000  0.7071 -0.0000  0.7071 -0.0000      0.0000  0.0000  0.0000  0.0000  0.0000  0.0000  0.0000  0.0000  0.0000  0.0000
  o =  0.2056  v =  0.0000  0.7071 -0.0000  0.7071 -0.0000  0.0000  0.0000  0.0000  0.0000  0.0000      0.0000  0.0000  0.0000  0.0000  0.0000  0.0000  0.0000  0.0000  0.0000  0.0000
  o =  0.2056  v =  0.0000  0.0000 -0.0000  0.0000  1.0000  0.0000  0.0000  0.0000  0.0000  0.0000      0.0000  0.0000  0.0000  0.0000  0.0000  0.0000  0.0000  0.0000  0.0000  0.0000
  o =  0.2056  v =  0.0000  0.0000  0.0000  0.0000  0.0000  0.0000  0.0000 -0.0000  0.0000  1.0000      0.0000  0.0000  0.0000  0.0000  0.0000  0.0000  0.0000  0.0000  0.0000  0.0000
  o =  0.2059  v = -0.8440  0.0000  0.5363  0.0000  0.0000  0.0000  0.0000  0.0000  0.0000  0.0000      0.0000  0.0000  0.0000  0.0000  0.0000  0.0000  0.0000  0.0000  0.0000  0.0000
  o =  0.2059  v =  0.0000  0.0000  0.0000  0.0000  0.0000 -0.8440  0.0000  0.5363  0.0000  0.0000      0.0000  0.0000  0.0000  0.0000  0.0000  0.0000  0.0000  0.0000  0.0000  0.0000
 
atom =  49  type =  1  l = 2
 
 onsite density matrix
 
spin component  1
 
  0.2058 -0.0000 -0.0001 -0.0000 -0.0000
 -0.0000  0.2054  0.0000  0.0001 -0.0000
 -0.0001  0.0000  0.2056 -0.0000  0.0000
 -0.0000  0.0001 -0.0000  0.2054  0.0000
 -0.0000 -0.0000  0.0000  0.0000  0.2056
 
spin component  2
 
  0.2058 -0.0000 -0.0001 -0.0000 -0.0000
 -0.0000  0.2054  0.0000  0.0001 -0.0000
 -0.0001  0.0000  0.2056 -0.0000  0.0000
 -0.0000  0.0001 -0.0000  0.2054  0.0000
 -0.0000 -0.0000  0.0000  0.0000  0.2056
 
 occupancies and eigenvectors
 
  o =  0.2053  v =  0.0000  0.7071  0.0000 -0.7071  0.0000  0.0000  0.0000  0.0000  0.0000  0.0000      0.0000  0.0000  0.0000  0.0000  0.0000  0.0000  0.0000  0.0000  0.0000  0.0000
  o =  0.2053  v =  0.0000  0.0000  0.0000  0.0000  0.0000  0.0000  0.7071  0.0000 -0.7071  0.0000      0.0000  0.0000  0.0000  0.0000  0.0000  0.0000  0.0000  0.0000  0.0000  0.0000
  o =  0.2055  v =  0.0000  0.0000  0.0000  0.0000  0.0000  0.5363  0.0000  0.8440  0.0000 -0.0000      0.0000  0.0000  0.0000  0.0000  0.0000  0.0000  0.0000  0.0000  0.0000  0.0000
  o =  0.2055  v =  0.5363  0.0000  0.8440  0.0000 -0.0000  0.0000  0.0000  0.0000  0.0000  0.0000      0.0000  0.0000  0.0000  0.0000  0.0000  0.0000  0.0000  0.0000  0.0000  0.0000
  o =  0.2056  v = -0.0000  0.7071 -0.0000  0.7071  0.0000  0.0000  0.0000  0.0000  0.0000  0.0000      0.0000  0.0000  0.0000  0.0000  0.0000  0.0000  0.0000  0.0000  0.0000  0.0000
  o =  0.2056  v =  0.0000  0.0000  0.0000  0.0000  0.0000 -0.0000  0.7071 -0.0000  0.7071  0.0000      0.0000  0.0000  0.0000  0.0000  0.0000  0.0000  0.0000  0.0000  0.0000  0.0000
  o =  0.2056  v =  0.0000 -0.0000  0.0000 -0.0000  1.0000  0.0000  0.0000  0.0000  0.0000  0.0000      0.0000  0.0000  0.0000  0.0000  0.0000  0.0000  0.0000  0.0000  0.0000  0.0000
  o =  0.2056  v =  0.0000  0.0000  0.0000  0.0000  0.0000  0.0000 -0.0000  0.0000 -0.0000  1.0000      0.0000  0.0000  0.0000  0.0000  0.0000  0.0000  0.0000  0.0000  0.0000  0.0000
  o =  0.2059  v = -0.8440 -0.0000  0.5363 -0.0000  0.0000  0.0000  0.0000  0.0000  0.0000  0.0000      0.0000  0.0000  0.0000  0.0000  0.0000  0.0000  0.0000  0.0000  0.0000  0.0000
  o =  0.2059  v =  0.0000  0.0000  0.0000  0.0000  0.0000 -0.8440 -0.0000  0.5363 -0.0000  0.0000      0.0000  0.0000  0.0000  0.0000  0.0000  0.0000  0.0000  0.0000  0.0000  0.0000
 
atom =  50  type =  1  l = 2
 
 onsite density matrix
 
spin component  1
 
  0.2058 -0.0000 -0.0001  0.0000  0.0000
 -0.0000  0.2054  0.0000  0.0001 -0.0000
 -0.0001  0.0000  0.2056 -0.0000 -0.0000
  0.0000  0.0001 -0.0000  0.2054  0.0000
  0.0000 -0.0000 -0.0000  0.0000  0.2056
 
spin component  2
 
  0.2058 -0.0000 -0.0001  0.0000  0.0000
 -0.0000  0.2054  0.0000  0.0001 -0.0000
 -0.0001  0.0000  0.2056 -0.0000 -0.0000
  0.0000  0.0001 -0.0000  0.2054  0.0000
  0.0000 -0.0000 -0.0000  0.0000  0.2056
 
 occupancies and eigenvectors
 
  o =  0.2053  v =  0.0000 -0.7071  0.0000  0.7071 -0.0000  0.0000  0.0000  0.0000  0.0000  0.0000      0.0000  0.0000  0.0000  0.0000  0.0000  0.0000  0.0000  0.0000  0.0000  0.0000
  o =  0.2053  v =  0.0000  0.0000  0.0000  0.0000  0.0000  0.0000 -0.7071  0.0000  0.7071 -0.0000      0.0000  0.0000  0.0000  0.0000  0.0000  0.0000  0.0000  0.0000  0.0000  0.0000
  o =  0.2055  v =  0.0000  0.0000  0.0000  0.0000  0.0000  0.5363 -0.0000  0.8440 -0.0000  0.0000      0.0000  0.0000  0.0000  0.0000  0.0000  0.0000  0.0000  0.0000  0.0000  0.0000
  o =  0.2055  v =  0.5363 -0.0000  0.8440 -0.0000  0.0000  0.0000  0.0000  0.0000  0.0000  0.0000      0.0000  0.0000  0.0000  0.0000  0.0000  0.0000  0.0000  0.0000  0.0000  0.0000
  o =  0.2056  v =  0.0000  0.7071  0.0000  0.7071  0.0000  0.0000  0.0000  0.0000  0.0000  0.0000      0.0000  0.0000  0.0000  0.0000  0.0000  0.0000  0.0000  0.0000  0.0000  0.0000
  o =  0.2056  v =  0.0000  0.0000  0.0000  0.0000  0.0000  0.0000  0.7071  0.0000  0.7071  0.0000      0.0000  0.0000  0.0000  0.0000  0.0000  0.0000  0.0000  0.0000  0.0000  0.0000
  o =  0.2056  v = -0.0000 -0.0000 -0.0000 -0.0000  1.0000  0.0000  0.0000  0.0000  0.0000  0.0000      0.0000  0.0000  0.0000  0.0000  0.0000  0.0000  0.0000  0.0000  0.0000  0.0000
  o =  0.2056  v =  0.0000  0.0000  0.0000  0.0000  0.0000 -0.0000 -0.0000 -0.0000 -0.0000  1.0000      0.0000  0.0000  0.0000  0.0000  0.0000  0.0000  0.0000  0.0000  0.0000  0.0000
  o =  0.2059  v =  0.0000  0.0000  0.0000  0.0000  0.0000 -0.8440  0.0000  0.5363  0.0000 -0.0000      0.0000  0.0000  0.0000  0.0000  0.0000  0.0000  0.0000  0.0000  0.0000  0.0000
  o =  0.2059  v = -0.8440  0.0000  0.5363  0.0000 -0.0000  0.0000  0.0000  0.0000  0.0000  0.0000      0.0000  0.0000  0.0000  0.0000  0.0000  0.0000  0.0000  0.0000  0.0000  0.0000
 
atom =  51  type =  1  l = 2
 
 onsite density matrix
 
spin component  1
 
  0.2058 -0.0000 -0.0001 -0.0000 -0.0000
 -0.0000  0.2054  0.0000  0.0001 -0.0000
 -0.0001  0.0000  0.2056 -0.0000  0.0000
 -0.0000  0.0001 -0.0000  0.2054 -0.0000
 -0.0000 -0.0000  0.0000 -0.0000  0.2056
 
spin component  2
 
  0.2058 -0.0000 -0.0001 -0.0000 -0.0000
 -0.0000  0.2054  0.0000  0.0001 -0.0000
 -0.0001  0.0000  0.2056 -0.0000  0.0000
 -0.0000  0.0001 -0.0000  0.2054 -0.0000
 -0.0000 -0.0000  0.0000 -0.0000  0.2056
 
 occupancies and eigenvectors
 
  o =  0.2053  v =  0.0000 -0.7071  0.0000  0.7071  0.0000  0.0000  0.0000  0.0000  0.0000  0.0000      0.0000  0.0000  0.0000  0.0000  0.0000  0.0000  0.0000  0.0000  0.0000  0.0000
  o =  0.2053  v =  0.0000  0.0000  0.0000  0.0000  0.0000  0.0000 -0.7071  0.0000  0.7071  0.0000      0.0000  0.0000  0.0000  0.0000  0.0000  0.0000  0.0000  0.0000  0.0000  0.0000
  o =  0.2055  v =  0.0000  0.0000  0.0000  0.0000  0.0000  0.5363 -0.0000  0.8440 -0.0000 -0.0000      0.0000  0.0000  0.0000  0.0000  0.0000  0.0000  0.0000  0.0000  0.0000  0.0000
  o =  0.2055  v =  0.5363 -0.0000  0.8440 -0.0000 -0.0000  0.0000  0.0000  0.0000  0.0000  0.0000      0.0000  0.0000  0.0000  0.0000  0.0000  0.0000  0.0000  0.0000  0.0000  0.0000
  o =  0.2056  v = -0.0000 -0.7071 -0.0000 -0.7071  0.0000  0.0000  0.0000  0.0000  0.0000  0.0000      0.0000  0.0000  0.0000  0.0000  0.0000  0.0000  0.0000  0.0000  0.0000  0.0000
  o =  0.2056  v =  0.0000  0.0000  0.0000  0.0000  0.0000 -0.0000 -0.7071 -0.0000 -0.7071  0.0000      0.0000  0.0000  0.0000  0.0000  0.0000  0.0000  0.0000  0.0000  0.0000  0.0000
  o =  0.2056  v =  0.0000  0.0000  0.0000  0.0000  1.0000  0.0000  0.0000  0.0000  0.0000  0.0000      0.0000  0.0000  0.0000  0.0000  0.0000  0.0000  0.0000  0.0000  0.0000  0.0000
  o =  0.2056  v =  0.0000  0.0000  0.0000  0.0000  0.0000  0.0000  0.0000  0.0000  0.0000  1.0000      0.0000  0.0000  0.0000  0.0000  0.0000  0.0000  0.0000  0.0000  0.0000  0.0000
  o =  0.2059  v = -0.8440  0.0000  0.5363  0.0000  0.0000  0.0000  0.0000  0.0000  0.0000  0.0000      0.0000  0.0000  0.0000  0.0000  0.0000  0.0000  0.0000  0.0000  0.0000  0.0000
  o =  0.2059  v =  0.0000  0.0000  0.0000  0.0000  0.0000 -0.8440  0.0000  0.5363  0.0000  0.0000      0.0000  0.0000  0.0000  0.0000  0.0000  0.0000  0.0000  0.0000  0.0000  0.0000
 
atom =  52  type =  1  l = 2
 
 onsite density matrix
 
spin component  1
 
  0.2058  0.0000 -0.0001 -0.0000  0.0000
  0.0000  0.2054  0.0000  0.0001  0.0000
 -0.0001  0.0000  0.2056  0.0000  0.0000
 -0.0000  0.0001  0.0000  0.2054  0.0000
  0.0000  0.0000  0.0000  0.0000  0.2056
 
spin component  2
 
  0.2058  0.0000 -0.0001 -0.0000  0.0000
  0.0000  0.2054  0.0000  0.0001  0.0000
 -0.0001  0.0000  0.2056  0.0000  0.0000
 -0.0000  0.0001  0.0000  0.2054  0.0000
  0.0000  0.0000  0.0000  0.0000  0.2056
 
 occupancies and eigenvectors
 
  o =  0.2053  v = -0.0000  0.7071 -0.0000 -0.7071  0.0000  0.0000  0.0000  0.0000  0.0000  0.0000      0.0000  0.0000  0.0000  0.0000  0.0000  0.0000  0.0000  0.0000  0.0000  0.0000
  o =  0.2053  v =  0.0000  0.0000  0.0000  0.0000  0.0000 -0.0000  0.7071 -0.0000 -0.7071  0.0000      0.0000  0.0000  0.0000  0.0000  0.0000  0.0000  0.0000  0.0000  0.0000  0.0000
  o =  0.2055  v =  0.0000  0.0000  0.0000  0.0000  0.0000 -0.5363  0.0000 -0.8440  0.0000  0.0000      0.0000  0.0000  0.0000  0.0000  0.0000  0.0000  0.0000  0.0000  0.0000  0.0000
  o =  0.2055  v = -0.5363  0.0000 -0.8440  0.0000  0.0000  0.0000  0.0000  0.0000  0.0000  0.0000      0.0000  0.0000  0.0000  0.0000  0.0000  0.0000  0.0000  0.0000  0.0000  0.0000
  o =  0.2056  v = -0.0000 -0.7071 -0.0000 -0.7071 -0.0000  0.0000  0.0000  0.0000  0.0000  0.0000      0.0000  0.0000  0.0000  0.0000  0.0000  0.0000  0.0000  0.0000  0.0000  0.0000
  o =  0.2056  v =  0.0000  0.0000  0.0000  0.0000  0.0000 -0.0000 -0.7071 -0.0000 -0.7071 -0.0000      0.0000  0.0000  0.0000  0.0000  0.0000  0.0000  0.0000  0.0000  0.0000  0.0000
  o =  0.2056  v =  0.0000 -0.0000  0.0000 -0.0000  1.0000  0.0000  0.0000  0.0000  0.0000  0.0000      0.0000  0.0000  0.0000  0.0000  0.0000  0.0000  0.0000  0.0000  0.0000  0.0000
  o =  0.2056  v =  0.0000  0.0000  0.0000  0.0000  0.0000  0.0000 -0.0000  0.0000 -0.0000  1.0000      0.0000  0.0000  0.0000  0.0000  0.0000  0.0000  0.0000  0.0000  0.0000  0.0000
  o =  0.2059  v = -0.8440  0.0000  0.5363  0.0000  0.0000  0.0000  0.0000  0.0000  0.0000  0.0000      0.0000  0.0000  0.0000  0.0000  0.0000  0.0000  0.0000  0.0000  0.0000  0.0000
  o =  0.2059  v =  0.0000  0.0000  0.0000  0.0000  0.0000 -0.8440  0.0000  0.5363  0.0000  0.0000      0.0000  0.0000  0.0000  0.0000  0.0000  0.0000  0.0000  0.0000  0.0000  0.0000
 
atom =  53  type =  1  l = 2
 
 onsite density matrix
 
spin component  1
 
  0.2058  0.0000 -0.0001  0.0000  0.0000
  0.0000  0.2054  0.0000  0.0001 -0.0000
 -0.0001  0.0000  0.2056 -0.0000  0.0000
  0.0000  0.0001 -0.0000  0.2054  0.0000
  0.0000 -0.0000  0.0000  0.0000  0.2056
 
spin component  2
 
  0.2058  0.0000 -0.0001  0.0000  0.0000
  0.0000  0.2054  0.0000  0.0001 -0.0000
 -0.0001  0.0000  0.2056 -0.0000  0.0000
  0.0000  0.0001 -0.0000  0.2054  0.0000
  0.0000 -0.0000  0.0000  0.0000  0.2056
 
 occupancies and eigenvectors
 
  o =  0.2053  v = -0.0000  0.7071 -0.0000 -0.7071  0.0000  0.0000  0.0000  0.0000  0.0000  0.0000      0.0000  0.0000  0.0000  0.0000  0.0000  0.0000  0.0000  0.0000  0.0000  0.0000
  o =  0.2053  v =  0.0000  0.0000  0.0000  0.0000  0.0000 -0.0000  0.7071 -0.0000 -0.7071  0.0000      0.0000  0.0000  0.0000  0.0000  0.0000  0.0000  0.0000  0.0000  0.0000  0.0000
  o =  0.2055  v =  0.0000  0.0000  0.0000  0.0000  0.0000 -0.5363  0.0000 -0.8440  0.0000  0.0000      0.0000  0.0000  0.0000  0.0000  0.0000  0.0000  0.0000  0.0000  0.0000  0.0000
  o =  0.2055  v = -0.5363  0.0000 -0.8440  0.0000  0.0000  0.0000  0.0000  0.0000  0.0000  0.0000      0.0000  0.0000  0.0000  0.0000  0.0000  0.0000  0.0000  0.0000  0.0000  0.0000
  o =  0.2056  v = -0.0000 -0.7071 -0.0000 -0.7071 -0.0000  0.0000  0.0000  0.0000  0.0000  0.0000      0.0000  0.0000  0.0000  0.0000  0.0000  0.0000  0.0000  0.0000  0.0000  0.0000
  o =  0.2056  v =  0.0000  0.0000  0.0000  0.0000  0.0000 -0.0000 -0.7071 -0.0000 -0.7071 -0.0000      0.0000  0.0000  0.0000  0.0000  0.0000  0.0000  0.0000  0.0000  0.0000  0.0000
  o =  0.2056  v =  0.0000 -0.0000  0.0000 -0.0000  1.0000  0.0000  0.0000  0.0000  0.0000  0.0000      0.0000  0.0000  0.0000  0.0000  0.0000  0.0000  0.0000  0.0000  0.0000  0.0000
  o =  0.2056  v =  0.0000  0.0000  0.0000  0.0000  0.0000  0.0000 -0.0000  0.0000 -0.0000  1.0000      0.0000  0.0000  0.0000  0.0000  0.0000  0.0000  0.0000  0.0000  0.0000  0.0000
  o =  0.2059  v = -0.8440  0.0000  0.5363  0.0000  0.0000  0.0000  0.0000  0.0000  0.0000  0.0000      0.0000  0.0000  0.0000  0.0000  0.0000  0.0000  0.0000  0.0000  0.0000  0.0000
  o =  0.2059  v =  0.0000  0.0000  0.0000  0.0000  0.0000 -0.8440  0.0000  0.5363  0.0000  0.0000      0.0000  0.0000  0.0000  0.0000  0.0000  0.0000  0.0000  0.0000  0.0000  0.0000
 
atom =  54  type =  1  l = 2
 
 onsite density matrix
 
spin component  1
 
  0.2058  0.0000 -0.0001 -0.0000 -0.0000
  0.0000  0.2054  0.0000  0.0001  0.0000
 -0.0001  0.0000  0.2056  0.0000 -0.0000
 -0.0000  0.0001  0.0000  0.2054  0.0000
 -0.0000  0.0000 -0.0000  0.0000  0.2056
 
spin component  2
 
  0.2058  0.0000 -0.0001 -0.0000 -0.0000
  0.0000  0.2054  0.0000  0.0001  0.0000
 -0.0001  0.0000  0.2056  0.0000 -0.0000
 -0.0000  0.0001  0.0000  0.2054  0.0000
 -0.0000  0.0000 -0.0000  0.0000  0.2056
 
 occupancies and eigenvectors
 
  o =  0.2053  v = -0.0000  0.7071 -0.0000 -0.7071  0.0000  0.0000  0.0000  0.0000  0.0000  0.0000      0.0000  0.0000  0.0000  0.0000  0.0000  0.0000  0.0000  0.0000  0.0000  0.0000
  o =  0.2053  v =  0.0000  0.0000  0.0000  0.0000  0.0000 -0.0000  0.7071 -0.0000 -0.7071  0.0000      0.0000  0.0000  0.0000  0.0000  0.0000  0.0000  0.0000  0.0000  0.0000  0.0000
  o =  0.2055  v =  0.0000  0.0000  0.0000  0.0000  0.0000 -0.5363  0.0000 -0.8440  0.0000 -0.0000      0.0000  0.0000  0.0000  0.0000  0.0000  0.0000  0.0000  0.0000  0.0000  0.0000
  o =  0.2055  v = -0.5363  0.0000 -0.8440  0.0000 -0.0000  0.0000  0.0000  0.0000  0.0000  0.0000      0.0000  0.0000  0.0000  0.0000  0.0000  0.0000  0.0000  0.0000  0.0000  0.0000
  o =  0.2056  v =  0.0000  0.7071  0.0000  0.7071  0.0000  0.0000  0.0000  0.0000  0.0000  0.0000      0.0000  0.0000  0.0000  0.0000  0.0000  0.0000  0.0000  0.0000  0.0000  0.0000
  o =  0.2056  v =  0.0000  0.0000  0.0000  0.0000  0.0000  0.0000  0.7071  0.0000  0.7071  0.0000      0.0000  0.0000  0.0000  0.0000  0.0000  0.0000  0.0000  0.0000  0.0000  0.0000
  o =  0.2056  v =  0.0000  0.0000  0.0000  0.0000 -1.0000  0.0000  0.0000  0.0000  0.0000  0.0000      0.0000  0.0000  0.0000  0.0000  0.0000  0.0000  0.0000  0.0000  0.0000  0.0000
  o =  0.2056  v =  0.0000  0.0000  0.0000  0.0000  0.0000  0.0000  0.0000  0.0000  0.0000 -1.0000      0.0000  0.0000  0.0000  0.0000  0.0000  0.0000  0.0000  0.0000  0.0000  0.0000
  o =  0.2059  v = -0.8440  0.0000  0.5363  0.0000 -0.0000  0.0000  0.0000  0.0000  0.0000  0.0000      0.0000  0.0000  0.0000  0.0000  0.0000  0.0000  0.0000  0.0000  0.0000  0.0000
  o =  0.2059  v =  0.0000  0.0000  0.0000  0.0000  0.0000 -0.8440  0.0000  0.5363  0.0000 -0.0000      0.0000  0.0000  0.0000  0.0000  0.0000  0.0000  0.0000  0.0000  0.0000  0.0000
 
     EDDAV:  cpu time 2745.7747: real time 2747.3450
       DOS:  cpu time    0.0223: real time    0.0263
    --------------------------------------------
      LOOP:  cpu time 2745.9779: real time 2747.5762

 eigenvalue-minimisations  : 65440
 total energy-change (2. order) :-0.1390783E+05  (-0.1003864E+06)
 number of electron    1296.0000476 magnetization 
 augmentation part      125.1967368 magnetization 

 Free energy of the ion-electron system (eV)
  ---------------------------------------------------
  alpha Z        PSCENC =      4977.13644973
  Ewald energy   TEWEN  =    -97345.14392376
  -Hartree energ DENC   =     -1199.75983019
  -exchange      EXHF   =         0.00000000
  -V(xc)+E(xc)   XCENC  =      4568.13513345
  PAW double counting   =   1672054.30539635 -1672448.14367648
  entropy T*S    EENTRO =        -0.00022806
  eigenvalues    EBANDS =    -56965.96076027
  atomic energy  EATOM  =    132451.59775943
  Solvation  Ediel_sol  =         0.00000000
  ---------------------------------------------------
  free energy    TOTEN  =    -13907.83367979 eV

  energy without entropy =   -13907.83345173  energy(sigma->0) =   -13907.83356576


--------------------------------------------------------------------------------------------------------




--------------------------------------- Iteration      1(   2)  ---------------------------------------


