TiO2                                    
   1.00000000000000     
     4.584000    0.000000    0.000000
     0.000000    4.584000    0.000000
     0.000000    0.000000    2.953000
   Ti   O 
     2     4
Direct
  0.000000  0.000000  0.000000
  0.500000  0.500000  0.500000
  0.196209  0.803791  0.500000
  0.803791  0.196209  0.500000
  0.303791  0.303791  0.000000
  0.696209  0.696209  0.000000
 
   48   48   32
 0.92756862836E+03 0.89144263196E+03 0.79107036440E+03 0.64773138704E+03 0.48890371331E+03
 0.33985365244E+03 0.21742171663E+03 0.12813481641E+03 0.70206424584E+02 0.37155045080E+02
 0.20911254800E+02 0.13707966443E+02 0.99853317084E+01 0.79332867138E+01 0.67245701133E+01
 0.58917975234E+01 0.51975336168E+01 0.45552728817E+01 0.39706158349E+01 0.34656847941E+01
 0.30375446223E+01 0.26817869633E+01 0.24173054413E+01 0.22631351520E+01 0.22145772998E+01
 0.22631351520E+01 0.24173054413E+01 0.26817869633E+01 0.30375446223E+01 0.34656847941E+01
 0.39706158349E+01 0.45552728817E+01 0.51975336168E+01 0.58917975234E+01 0.67245701133E+01
 0.79332867138E+01 0.99853317084E+01 0.13707966443E+02 0.20911254800E+02 0.37155045080E+02
 0.70206424584E+02 0.12813481641E+03 0.21742171663E+03 0.33985365244E+03 0.48890371331E+03
 0.64773138704E+03 0.79107036440E+03 0.89144263196E+03 0.89144263196E+03 0.85687289090E+03
 0.76080567842E+03 0.62369576550E+03 0.47174483130E+03 0.32895507469E+03 0.21136494845E+03
 0.12533986400E+03 0.69406942003E+02 0.37532240119E+02 0.21965393865E+02 0.15081137900E+02
 0.11496746014E+02 0.95083114751E+01 0.83026546484E+01 0.74173023122E+01 0.66211579766E+01
 0.58390017376E+01 0.50894611633E+01 0.44063004232E+01 0.37963660986E+01 0.32628075210E+01
 0.28289289164E+01 0.25153661353E+01 0.23174786876E+01 0.22255541196E+01 0.22453954552E+01
 0.23787195001E+01 0.26050903367E+01 0.29063833508E+01 0.32898273889E+01 0.37638267089E+01
 0.43140746643E+01 0.49414867841E+01 0.57322490065E+01 0.69128322732E+01 0.89279183299E+01
 0.12571009484E+02 0.19514262000E+02 0.34975051386E+02 0.66444385674E+02 0.12179136276E+03
 0.20741269571E+03 0.32515200096E+03 0.46873409031E+03 0.62183336270E+03 0.75997562684E+03
 0.85664297284E+03 0.79107036440E+03 0.76080567842E+03 0.67625154002E+03 0.55546954273E+03
 0.42143814402E+03 0.29517089139E+03 0.19083017496E+03 0.11428213533E+03 0.64549076716E+02
 0.36438189954E+02 0.22923348193E+02 0.16897413145E+02 0.13690367714E+02 0.11888150792E+02
 0.10728613627E+02 0.97769376097E+01 0.88261966487E+01 0.78279325668E+01 0.68254954964E+01
 0.58729712687E+01 0.49944486594E+01 0.42062084218E+01 0.35387033602E+01 0.30157526727E+01
 0.26348545716E+01 0.23864050462E+01 0.22725768395E+01 0.22899579512E+01 0.24144884410E+01
 0.26254144310E+01 0.29277183609E+01 0.33306310295E+01 0.38243471197E+01 0.44114276010E+01
 0.51682934542E+01 0.62950790385E+01 0.81878606987E+01 0.11560895801E+02 0.17774183679E+02
 0.31219854079E+02 0.58719296633E+02 0.10745056643E+03 0.18322166305E+03 0.28769536246E+03
 0.41524310535E+03 0.55128712267E+03 0.67404282283E+03 0.75997562684E+03 0.64773138704E+03
 0.62369576550E+03 0.55546954273E+03 0.45764231474E+03 0.34872776701E+03 0.24572072213E+03
 0.16028935703E+03 0.97577014397E+02 0.57127103866E+02 0.34729501667E+02 0.24286024335E+02
 0.19531595984E+02 0.16983641005E+02 0.15536783463E+02 0.14493016636E+02 0.13456409168E+02
 0.12261491749E+02 0.10909134124E+02 0.94906376680E+01 0.81017695901E+01 0.68013760440E+01
 0.56292011736E+01 0.46249692640E+01 0.38133299062E+01 0.31913681135E+01 0.27475231962E+01
 0.24779572895E+01 0.23721273617E+01 0.24010740114E+01 0.25389696804E+01 0.27838131917E+01
 0.31407559493E+01 0.36012739057E+01 0.41660529502E+01 0.48948216513E+01 0.59497441578E+01
 0.76590048301E+01 0.10623880740E+02 0.15862889725E+02 0.26558295630E+02 0.48531490331E+02
 0.87934593601E+02 0.14965872796E+03 0.23504663638E+03 0.33940392160E+03 0.45075036785E+03
 0.55128712267E+03 0.62183336270E+03 0.48890371331E+03 0.47174483130E+03 0.42143814402E+03
 0.34872776701E+03 0.26732280720E+03 0.18997785375E+03 0.12572729988E+03 0.78853026646E+02
 0.49260581508E+02 0.33608783583E+02 0.26740832166E+02 0.23602142942E+02 0.22081281345E+02
 0.21242810344E+02 0.20432277039E+02 0.19286671711E+02 0.17697385114E+02 0.15747425046E+02
 0.13618018707E+02 0.11489908838E+02 0.94929201863E+01 0.77116228847E+01 0.61995549397E+01
 0.49753633021E+01 0.40250823885E+01 0.33252481177E+01 0.28584525387E+01 0.26027250267E+01
 0.25225320067E+01 0.25852188298E+01 0.27780897413E+01 0.30979284407E+01 0.35347769248E+01
 0.40855557675E+01 0.47897263114E+01 0.57651729210E+01 0.72621945523E+01 0.97515821591E+01
 0.13993582297E+02 0.21842755767E+02 0.37805138551E+02 0.66881786222E+02 0.11295891796E+03
 0.17705740652E+03 0.25555951065E+03 0.33940392160E+03 0.41524310535E+03 0.46873409031E+03
 0.33985365244E+03 0.32895507469E+03 0.29517089139E+03 0.24572072213E+03 0.18997785375E+03
 0.13689199170E+03 0.93067477393E+02 0.61825923999E+02 0.43151885763E+02 0.34318477047E+02
 0.31046106091E+02 0.30023546101E+02 0.30046081466E+02 0.30201295776E+02 0.29818173359E+02
 0.28539617186E+02 0.26325019090E+02 0.23383357911E+02 0.20052256023E+02 0.16672376867E+02
 0.13510100535E+02 0.10736126813E+02 0.84303803858E+01 0.65957165383E+01 0.51861428721E+01
 0.41441432106E+01 0.34216711093E+01 0.29754392625E+01 0.27590971289E+01 0.27310609405E+01
 0.28651480635E+01 0.31460358642E+01 0.35592886422E+01 0.40966990237E+01 0.47769842226E+01
 0.56733306823E+01 0.69580128929E+01 0.89706400223E+01 0.12271658513E+02 0.17776042145E+02
 0.28283456030E+02 0.47679745577E+02 0.78957818695E+02 0.12292741733E+03 0.17705740652E+03
 0.23504663638E+03 0.28769536246E+03 0.32515200096E+03 0.21742171663E+03 0.21136494845E+03
 0.19083017496E+03 0.16028935703E+03 0.12572729988E+03 0.93067477393E+02 0.66850631513E+02
 0.49384818726E+02 0.40469922469E+02 0.37766866549E+02 0.38112801715E+02 0.39954832197E+02
 0.42241740969E+02 0.44001659333E+02 0.44417907524E+02 0.43007004386E+02 0.39789075794E+02
 0.35226994072E+02 0.29957245408E+02 0.24544099519E+02 0.19484882904E+02 0.15110285497E+02
 0.11556534891E+02 0.88018511657E+01 0.67363382023E+01 0.52311087871E+01 0.41770957078E+01
 0.34904342366E+01 0.31040282562E+01 0.29630223428E+01 0.30252760198E+01 0.32601038474E+01
 0.36446790105E+01 0.41637152071E+01 0.48168798858E+01 0.56374501077E+01 0.67277924938E+01
 0.83094676920E+01 0.10763014255E+02 0.14619847256E+02 0.21009503861E+02 0.32587675571E+02
 0.51655628763E+02 0.78957818695E+02 0.11295891796E+03 0.14965872796E+03 0.18322166305E+03
 0.20741269571E+03 0.12813481641E+03 0.12533986400E+03 0.11428213533E+03 0.97577014397E+02
 0.78853026646E+02 0.61825923999E+02 0.49384818726E+02 0.42880486559E+02 0.41831194993E+02
 0.44314696093E+02 0.48901258715E+02 0.54890291153E+02 0.61221874001E+02 0.66311645904E+02
 0.68604061699E+02 0.67166268937E+02 0.62036187669E+02 0.54179681759E+02 0.45083438615E+02
 0.36150719096E+02 0.28153815572E+02 0.21323462517E+02 0.15868727580E+02 0.11746187337E+02
 0.87439259386E+01 0.66097987626E+01 0.51284513932E+01 0.41440029423E+01 0.35499042900E+01
 0.32691753003E+01 0.32408205682E+01 0.34166485924E+01 0.37616703740E+01 0.42512463977E+01
 0.48691000329E+01 0.56170057571E+01 0.65406721419E+01 0.77649212671E+01 0.95222085582E+01
 0.12152013708E+02 0.16064123467E+02 0.22308328644E+02 0.32587675571E+02 0.47679745577E+02
 0.66881786222E+02 0.87934593601E+02 0.10745056643E+03 0.12179136276E+03 0.70206424584E+02
 0.69406942003E+02 0.64549076716E+02 0.57127103866E+02 0.49260581508E+02 0.43151885763E+02
 0.40469922469E+02 0.41831194993E+02 0.46655828567E+02 0.54358502359E+02 0.65108857223E+02
 0.78227344870E+02 0.91653550175E+02 0.10252955308E+03 0.10815655989E+03 0.10691286324E+03
 0.98791632544E+02 0.85399030193E+02 0.69421607703E+02 0.53713986840E+02 0.40313570497E+02
 0.29796322995E+02 0.21629192185E+02 0.15566453574E+02 0.11265250749E+02 0.82917698606E+01
 0.62675275907E+01 0.49219112528E+01 0.40810471679E+01 0.36314438353E+01 0.34890778744E+01
 0.35873376571E+01 0.38763798765E+01 0.43200908700E+01 0.48898161957E+01 0.55657930093E+01
 0.63523552424E+01 0.73015423610E+01 0.85343399414E+01 0.10245679014E+02 0.12677125786E+02
 0.16064123467E+02 0.21009503861E+02 0.28283456030E+02 0.37805138551E+02 0.48531490331E+02
 0.58719296633E+02 0.66444385674E+02 0.37155045080E+02 0.37532240119E+02 0.36438189954E+02
 0.34729501667E+02 0.33608783583E+02 0.34318477047E+02 0.37766866549E+02 0.44314696093E+02
 0.54358502359E+02 0.69089816142E+02 0.89040307079E+02 0.11258621071E+03 0.13613630782E+03
 0.15514873272E+03 0.16551020402E+03 0.16475100313E+03 0.15275095857E+03 0.13180100051E+03
 0.10599332992E+03 0.80022801000E+02 0.57717820950E+02 0.40870870672E+02 0.28928848200E+02
 0.20310347192E+02 0.14308835592E+02 0.10261467622E+02 0.75686612381E+01 0.57975901978E+01
 0.46741349846E+01 0.40299839779E+01 0.37521560515E+01 0.37549246591E+01 0.39715724732E+01
 0.43521944601E+01 0.48584263319E+01 0.54583271133E+01 0.61298977523E+01 0.68755891802E+01
 0.77402714360E+01 0.88193877258E+01 0.10245679014E+02 0.12152013708E+02 0.14619847256E+02
 0.17776042145E+02 0.21842755767E+02 0.26558295630E+02 0.31219854079E+02 0.34975051386E+02
 0.20911254800E+02 0.21965393865E+02 0.22923348193E+02 0.24286024335E+02 0.26740832166E+02
 0.31046106091E+02 0.38112801715E+02 0.48901258715E+02 0.65108857223E+02 0.89040307079E+02
 0.12073807113E+03 0.15720454829E+03 0.19298607113E+03 0.22167771982E+03 0.23768660223E+03
 0.23766664417E+03 0.22134218661E+03 0.19163894656E+03 0.15405542178E+03 0.11525742415E+03
 0.81167794002E+02 0.55223660401E+02 0.37597190235E+02 0.25843851698E+02 0.17789421975E+02
 0.12457030350E+02 0.89835234940E+01 0.67330409066E+01 0.53009418045E+01 0.44459518861E+01
 0.40192805347E+01 0.39150011055E+01 0.40479009631E+01 0.43518479207E+01 0.47798574491E+01
 0.52948350141E+01 0.58612739504E+01 0.64523067815E+01 0.70671294310E+01 0.77402714360E+01
 0.85343399414E+01 0.95222085582E+01 0.10763014255E+02 0.12271658513E+02 0.13993582297E+02
 0.15862889725E+02 0.17774183679E+02 0.19514262000E+02 0.13707966443E+02 0.15081137900E+02
 0.16897413145E+02 0.19531595984E+02 0.23602142942E+02 0.30023546101E+02 0.39954832197E+02
 0.54890291153E+02 0.78227344870E+02 0.11258621071E+03 0.15720454829E+03 0.20748491145E+03
 0.25604307808E+03 0.29468518461E+03 0.31647233323E+03 0.31728732053E+03 0.29671528096E+03
 0.25821932619E+03 0.20852386471E+03 0.15610184700E+03 0.10894824903E+03 0.72322654709E+02
 0.47439734644E+02 0.31787957299E+02 0.21492858556E+02 0.14754915383E+02 0.10437252365E+02
 0.76800916987E+01 0.59296556108E+01 0.48591619164E+01 0.42786910624E+01 0.40615692864E+01
 0.41038954122E+01 0.43221382893E+01 0.46609282596E+01 0.50820237368E+01 0.55452829131E+01
 0.60098170457E+01 0.64523067815E+01 0.68755891802E+01 0.73015423610E+01 0.77649212671E+01
 0.83094676920E+01 0.89706400223E+01 0.97515821591E+01 0.10623880740E+02 0.11560895801E+02
 0.12571009484E+02 0.99853317084E+01 0.11496746014E+02 0.13690367714E+02 0.16983641005E+02
 0.22081281345E+02 0.30046081466E+02 0.42241740969E+02 0.61221874001E+02 0.91653550175E+02
 0.13613630782E+03 0.19298607113E+03 0.25604307808E+03 0.31618060584E+03 0.36368512796E+03
 0.39053954721E+03 0.39205870595E+03 0.36777198043E+03 0.32158806864E+03 0.26117467786E+03
 0.19641738758E+03 0.13703826595E+03 0.89972996196E+02 0.57571483262E+02 0.37568008906E+02
 0.25077336995E+02 0.16969702749E+02 0.11829380151E+02 0.85824562438E+01 0.65272326293E+01
 0.52499291317E+01 0.45187307630E+01 0.41874712786E+01 0.41356025055E+01 0.42634042880E+01
 0.45076264828E+01 0.48303618680E+01 0.51913967392E+01 0.55452829131E+01 0.58612739504E+01
 0.61298977523E+01 0.63523552424E+01 0.65406721418E+01 0.67277924938E+01 0.69580128929E+01
 0.72621945523E+01 0.76590048301E+01 0.81878606987E+01 0.89279183299E+01 0.79332867138E+01
 0.95083114751E+01 0.11888150792E+02 0.15536783463E+02 0.21242810344E+02 0.30201295776E+02
 0.44001659333E+02 0.66311645904E+02 0.10252955308E+03 0.15514873272E+03 0.22167771982E+03
 0.29468518461E+03 0.36368512796E+03 0.41783044535E+03 0.44835995419E+03 0.45027133668E+03
 0.42316014456E+03 0.37130648075E+03 0.30300778921E+03 0.22905119454E+03 0.16031903577E+03
 0.10498488735E+03 0.66357187432E+02 0.42517603281E+02 0.28125176047E+02 0.18877536927E+02
 0.13044075065E+02 0.93808962228E+01 0.70641163337E+01 0.56061614664E+01 0.47390818255E+01
 0.43004410337E+01 0.41565655961E+01 0.41946914907E+01 0.43448783962E+01 0.45696390914E+01
 0.48303618680E+01 0.50820237368E+01 0.52948350141E+01 0.54583271133E+01 0.55657930093E+01
 0.56170057571E+01 0.56374501077E+01 0.56733306823E+01 0.57651729210E+01 0.59497441578E+01
 0.62950790385E+01 0.69128322732E+01 0.67245701133E+01 0.83026546484E+01 0.10728613627E+02
 0.14493016636E+02 0.20432277039E+02 0.29818173359E+02 0.44417907524E+02 0.68604061699E+02
 0.10815655989E+03 0.16551020402E+03 0.23768660223E+03 0.31647233323E+03 0.39053954721E+03
 0.44835995419E+03 0.48078499895E+03 0.48274256152E+03 0.45399834930E+03 0.39911585179E+03
 0.32670899078E+03 0.24794089901E+03 0.17420128648E+03 0.11428146570E+03 0.72045921449E+02
 0.45853291204E+02 0.30236025408E+02 0.20261742163E+02 0.13970804134E+02 0.10022241727E+02
 0.75185066025E+01 0.59257845333E+01 0.49522700118E+01 0.44239973687E+01 0.41981828081E+01
 0.41532860024E+01 0.42146203598E+01 0.43448783962E+01 0.45076264828E+01 0.46609282596E+01
 0.47798574491E+01 0.48584263319E+01 0.48898161957E+01 0.48691000329E+01 0.48168798858E+01
 0.47769842226E+01 0.47897263114E+01 0.48948216513E+01 0.51682934542E+01 0.57322490065E+01
 0.58917975234E+01 0.74173023122E+01 0.97769376097E+01 0.13456409168E+02 0.19286671711E+02
 0.28539617186E+02 0.43007004386E+02 0.67166268937E+02 0.10691286324E+03 0.16475100313E+03
 0.23766664417E+03 0.31728732053E+03 0.39205870595E+03 0.45027133668E+03 0.48274256152E+03
 0.48452944416E+03 0.45560168459E+03 0.40066903958E+03 0.32835296381E+03 0.24970812248E+03
 0.17599565769E+03 0.11594766604E+03 0.73462861906E+02 0.46987197803E+02 0.31130704117E+02
 0.20967195168E+02 0.14530442585E+02 0.10470960443E+02 0.78800702721E+01 0.62145544020E+01
 0.51754967157E+01 0.45833871012E+01 0.42908917790E+01 0.41730219039E+01 0.41532860024E+01
 0.41946914907E+01 0.42634042880E+01 0.43221382893E+01 0.43518479207E+01 0.43521944601E+01
 0.43200908700E+01 0.42512463977E+01 0.41637152071E+01 0.40966990237E+01 0.40855557675E+01
 0.41660529502E+01 0.44114276010E+01 0.49414867841E+01 0.51975336168E+01 0.66211579766E+01
 0.88261966487E+01 0.12261491749E+02 0.17697385114E+02 0.26325019090E+02 0.39789075794E+02
 0.62036187669E+02 0.98791632544E+02 0.15275095857E+03 0.22134218661E+03 0.29671528096E+03
 0.36777198043E+03 0.42316014456E+03 0.45399834930E+03 0.45560168459E+03 0.42809246668E+03
 0.37613565145E+03 0.30805356082E+03 0.23435636401E+03 0.16560158832E+03 0.10982600677E+03
 0.70448541596E+02 0.45795294151E+02 0.30728043838E+02 0.20944217240E+02 0.14698788306E+02
 0.10722186525E+02 0.81583682878E+01 0.64927129067E+01 0.54366753582E+01 0.48115903254E+01
 0.44705036202E+01 0.42908917790E+01 0.41981828081E+01 0.41565655961E+01 0.41356025055E+01
 0.41038954122E+01 0.40479009631E+01 0.39715724732E+01 0.38763798765E+01 0.37616703740E+01
 0.36446790105E+01 0.35592886422E+01 0.35347769248E+01 0.36012739057E+01 0.38243471197E+01
 0.43140746643E+01 0.45552728817E+01 0.58390017376E+01 0.78279325668E+01 0.10909134124E+02
 0.15747425046E+02 0.23383357911E+02 0.35226994072E+02 0.54179681759E+02 0.85399030193E+02
 0.13180100051E+03 0.19163894656E+03 0.25821932619E+03 0.32158806864E+03 0.37130648075E+03
 0.39911585179E+03 0.40066903958E+03 0.37613565145E+03 0.32991335999E+03 0.26971677541E+03
 0.20510512762E+03 0.14542808299E+03 0.97503745899E+02 0.63882354011E+02 0.42651286167E+02
 0.29167822445E+02 0.20266682253E+02 0.14520880923E+02 0.10814636492E+02 0.83970026757E+01
 0.68126859578E+01 0.57972640812E+01 0.51778027172E+01 0.48115903254E+01 0.45833871012E+01
 0.44239973687E+01 0.43004410337E+01 0.41874712786E+01 0.40615692864E+01 0.39150011055E+01
 0.37549246591E+01 0.35873376571E+01 0.34166485924E+01 0.32601038474E+01 0.31460358642E+01
 0.30979284407E+01 0.31407559493E+01 0.33306310295E+01 0.37638267089E+01 0.39706158349E+01
 0.50894611633E+01 0.68254954964E+01 0.94906376680E+01 0.13618018707E+02 0.20052256023E+02
 0.29957245408E+02 0.45083438615E+02 0.69421607703E+02 0.10599332992E+03 0.15405542178E+03
 0.20852386471E+03 0.26117467786E+03 0.30300778921E+03 0.32670899078E+03 0.32835296381E+03
 0.30805356082E+03 0.26971677541E+03 0.22013760777E+03 0.16754092344E+03 0.11965854075E+03
 0.81745686412E+02 0.55306098574E+02 0.38222363962E+02 0.26773627953E+02 0.19118841291E+02
 0.14111581017E+02 0.10837849715E+02 0.86835353840E+01 0.72697149500E+01 0.63627069268E+01
 0.57972640812E+01 0.54366753582E+01 0.51754967157E+01 0.49522700118E+01 0.47390818255E+01
 0.45187307630E+01 0.42786910624E+01 0.40192805347E+01 0.37521560515E+01 0.34890778744E+01
 0.32408205682E+01 0.30252760198E+01 0.28651480635E+01 0.27780897413E+01 0.27838131917E+01
 0.29277183609E+01 0.32898273889E+01 0.34656847941E+01 0.44063004232E+01 0.58729712687E+01
 0.81017695901E+01 0.11489908838E+02 0.16672376867E+02 0.24544099519E+02 0.36150719096E+02
 0.53713986840E+02 0.80022801000E+02 0.11525742415E+03 0.15610184700E+03 0.19641738758E+03
 0.22905119454E+03 0.24794089901E+03 0.24970812248E+03 0.23435636401E+03 0.20510512762E+03
 0.16754092344E+03 0.12823616201E+03 0.93050070600E+02 0.65568081887E+02 0.46310948807E+02
 0.33170808855E+02 0.23970334628E+02 0.17755438936E+02 0.13639678308E+02 0.10926503914E+02
 0.91453416515E+01 0.79944920448E+01 0.72697149500E+01 0.68126859578E+01 0.64927129067E+01
 0.62145544020E+01 0.59257845333E+01 0.56061614664E+01 0.52499291317E+01 0.48591619164E+01
 0.44459518861E+01 0.40299839779E+01 0.36314438353E+01 0.32691753003E+01 0.29630223428E+01
 0.27310609405E+01 0.25852188298E+01 0.25389696804E+01 0.26254144310E+01 0.29063833508E+01
 0.30375446223E+01 0.37963660986E+01 0.49944486594E+01 0.68013760440E+01 0.94929201863E+01
 0.13510100535E+02 0.19484882904E+02 0.28153815572E+02 0.40313570497E+02 0.57717820950E+02
 0.81167794002E+02 0.10894824903E+03 0.13703826595E+03 0.16031903577E+03 0.17420128648E+03
 0.17599565769E+03 0.16560158832E+03 0.14542808299E+03 0.11965854075E+03 0.93050070600E+02
 0.69562434619E+02 0.51259511500E+02 0.37941897841E+02 0.28141813242E+02 0.21185180368E+02
 0.16448171978E+02 0.13298887311E+02 0.11242918341E+02 0.99375478915E+01 0.91453416515E+01
 0.86835353840E+01 0.83970026757E+01 0.81583682878E+01 0.78800702721E+01 0.75185066025E+01
 0.70641163337E+01 0.65272326293E+01 0.59296556108E+01 0.53009418045E+01 0.46741349846E+01
 0.40810471679E+01 0.35499042900E+01 0.31040282562E+01 0.27590971289E+01 0.25225320067E+01
 0.24010740114E+01 0.24144884410E+01 0.26050903367E+01 0.26817869633E+01 0.32628075210E+01
 0.42062084218E+01 0.56292011736E+01 0.77116228847E+01 0.10736126813E+02 0.15110285497E+02
 0.21323462517E+02 0.29796322995E+02 0.40870870672E+02 0.55223660401E+02 0.72322654709E+02
 0.89972996196E+02 0.10498488735E+03 0.11428146570E+03 0.11594766604E+03 0.10982600677E+03
 0.97503745899E+02 0.81745686412E+02 0.65568081887E+02 0.51259511500E+02 0.39716037429E+02
 0.30580534737E+02 0.23675232915E+02 0.18765538844E+02 0.15437552874E+02 0.13279290722E+02
 0.11962389386E+02 0.11242918341E+02 0.10926503914E+02 0.10837849715E+02 0.10814636492E+02
 0.10722186525E+02 0.10470960443E+02 0.10022241727E+02 0.93808962228E+01 0.85824562438E+01
 0.76800916987E+01 0.67330409066E+01 0.57975901978E+01 0.49219112528E+01 0.41440029423E+01
 0.34904342366E+01 0.29754392625E+01 0.26027250267E+01 0.23721273617E+01 0.22899579512E+01
 0.23787195001E+01 0.24173054413E+01 0.28289289164E+01 0.35387033602E+01 0.46249692640E+01
 0.61995549397E+01 0.84303803858E+01 0.11556534891E+02 0.15868727580E+02 0.21629192185E+02
 0.28928848200E+02 0.37597190235E+02 0.47439734644E+02 0.57571483262E+02 0.66357187432E+02
 0.72045921449E+02 0.73462861906E+02 0.70448541596E+02 0.63882354011E+02 0.55306098574E+02
 0.46310948807E+02 0.37941897841E+02 0.30580534737E+02 0.24590153241E+02 0.20086516306E+02
 0.16938298327E+02 0.14908566317E+02 0.13756928552E+02 0.13279290722E+02 0.13298887311E+02
 0.13639678308E+02 0.14111581017E+02 0.14520880923E+02 0.14698788306E+02 0.14530442585E+02
 0.13970804134E+02 0.13044075065E+02 0.11829380151E+02 0.10437252365E+02 0.89835234940E+01
 0.75686612381E+01 0.62675275907E+01 0.51284513932E+01 0.41770957078E+01 0.34216711093E+01
 0.28584525387E+01 0.24779572895E+01 0.22725768395E+01 0.22453954552E+01 0.22631351520E+01
 0.25153661353E+01 0.30157526727E+01 0.38133299062E+01 0.49753633021E+01 0.65957165383E+01
 0.88018511657E+01 0.11746187337E+02 0.15566453574E+02 0.20310347192E+02 0.25843851698E+02
 0.31787957299E+02 0.37568008906E+02 0.42517603281E+02 0.45853291204E+02 0.46987197803E+02
 0.45795294151E+02 0.42651286167E+02 0.38222363962E+02 0.33170808855E+02 0.28141813242E+02
 0.23675232915E+02 0.20086516306E+02 0.17479769767E+02 0.15816947035E+02 0.14997219218E+02
 0.14908566317E+02 0.15437552874E+02 0.16448171978E+02 0.17755438936E+02 0.19118841291E+02
 0.20266682253E+02 0.20944217240E+02 0.20967195168E+02 0.20261742163E+02 0.18877536927E+02
 0.16969702749E+02 0.14754915383E+02 0.12457030350E+02 0.10261467622E+02 0.82917698606E+01
 0.66097987626E+01 0.52311087871E+01 0.41441432106E+01 0.33252481177E+01 0.27475231962E+01
 0.23864050462E+01 0.22255541196E+01 0.22145772998E+01 0.23174786876E+01 0.26348545716E+01
 0.31913681135E+01 0.40250823885E+01 0.51861428721E+01 0.67363382023E+01 0.87439259386E+01
 0.11265250749E+02 0.14308835592E+02 0.17789421975E+02 0.21492858556E+02 0.25077336995E+02
 0.28125176047E+02 0.30236025408E+02 0.31130704117E+02 0.30728043838E+02 0.29167822445E+02
 0.26773627953E+02 0.23970334628E+02 0.21185180368E+02 0.18765538844E+02 0.16938298327E+02
 0.15816947035E+02 0.15440766900E+02 0.15816947035E+02 0.16938298327E+02 0.18765538844E+02
 0.21185180368E+02 0.23970334628E+02 0.26773627953E+02 0.29167822445E+02 0.30728043838E+02
 0.31130704117E+02 0.30236025408E+02 0.28125176047E+02 0.25077336995E+02 0.21492858556E+02
 0.17789421975E+02 0.14308835592E+02 0.11265250749E+02 0.87439259386E+01 0.67363382023E+01
 0.51861428721E+01 0.40250823885E+01 0.31913681135E+01 0.26348545716E+01 0.23174786876E+01
 0.22631351520E+01 0.22255541196E+01 0.23864050462E+01 0.27475231962E+01 0.33252481177E+01
 0.41441432106E+01 0.52311087871E+01 0.66097987626E+01 0.82917698606E+01 0.10261467622E+02
 0.12457030350E+02 0.14754915383E+02 0.16969702749E+02 0.18877536927E+02 0.20261742163E+02
 0.20967195168E+02 0.20944217240E+02 0.20266682253E+02 0.19118841291E+02 0.17755438936E+02
 0.16448171978E+02 0.15437552874E+02 0.14908566317E+02 0.14997219218E+02 0.15816947035E+02
 0.17479769767E+02 0.20086516306E+02 0.23675232915E+02 0.28141813242E+02 0.33170808855E+02
 0.38222363962E+02 0.42651286167E+02 0.45795294151E+02 0.46987197803E+02 0.45853291204E+02
 0.42517603281E+02 0.37568008906E+02 0.31787957299E+02 0.25843851698E+02 0.20310347192E+02
 0.15566453574E+02 0.11746187337E+02 0.88018511657E+01 0.65957165383E+01 0.49753633021E+01
 0.38133299062E+01 0.30157526727E+01 0.25153661353E+01 0.24173054413E+01 0.22453954552E+01
 0.22725768395E+01 0.24779572895E+01 0.28584525387E+01 0.34216711093E+01 0.41770957078E+01
 0.51284513932E+01 0.62675275907E+01 0.75686612381E+01 0.89835234940E+01 0.10437252365E+02
 0.11829380151E+02 0.13044075065E+02 0.13970804134E+02 0.14530442585E+02 0.14698788306E+02
 0.14520880923E+02 0.14111581017E+02 0.13639678308E+02 0.13298887311E+02 0.13279290722E+02
 0.13756928552E+02 0.14908566317E+02 0.16938298327E+02 0.20086516306E+02 0.24590153241E+02
 0.30580534737E+02 0.37941897841E+02 0.46310948807E+02 0.55306098574E+02 0.63882354011E+02
 0.70448541596E+02 0.73462861906E+02 0.72045921449E+02 0.66357187432E+02 0.57571483262E+02
 0.47439734644E+02 0.37597190235E+02 0.28928848200E+02 0.21629192185E+02 0.15868727580E+02
 0.11556534891E+02 0.84303803858E+01 0.61995549397E+01 0.46249692640E+01 0.35387033602E+01
 0.28289289164E+01 0.26817869633E+01 0.23787195001E+01 0.22899579512E+01 0.23721273617E+01
 0.26027250267E+01 0.29754392625E+01 0.34904342366E+01 0.41440029423E+01 0.49219112528E+01
 0.57975901978E+01 0.67330409066E+01 0.76800916987E+01 0.85824562438E+01 0.93808962228E+01
 0.10022241727E+02 0.10470960443E+02 0.10722186525E+02 0.10814636492E+02 0.10837849715E+02
 0.10926503914E+02 0.11242918341E+02 0.11962389386E+02 0.13279290722E+02 0.15437552874E+02
 0.18765538844E+02 0.23675232915E+02 0.30580534737E+02 0.39716037429E+02 0.51259511500E+02
 0.65568081887E+02 0.81745686412E+02 0.97503745899E+02 0.10982600677E+03 0.11594766604E+03
 0.11428146570E+03 0.10498488735E+03 0.89972996196E+02 0.72322654709E+02 0.55223660401E+02
 0.40870870672E+02 0.29796322995E+02 0.21323462517E+02 0.15110285497E+02 0.10736126813E+02
 0.77116228847E+01 0.56292011736E+01 0.42062084218E+01 0.32628075210E+01 0.30375446223E+01
 0.26050903367E+01 0.24144884410E+01 0.24010740114E+01 0.25225320067E+01 0.27590971289E+01
 0.31040282562E+01 0.35499042900E+01 0.40810471679E+01 0.46741349846E+01 0.53009418045E+01
 0.59296556108E+01 0.65272326293E+01 0.70641163337E+01 0.75185066025E+01 0.78800702721E+01
 0.81583682878E+01 0.83970026757E+01 0.86835353840E+01 0.91453416515E+01 0.99375478915E+01
 0.11242918341E+02 0.13298887311E+02 0.16448171978E+02 0.21185180368E+02 0.28141813242E+02
 0.37941897841E+02 0.51259511500E+02 0.69562434619E+02 0.93050070600E+02 0.11965854075E+03
 0.14542808299E+03 0.16560158832E+03 0.17599565769E+03 0.17420128648E+03 0.16031903577E+03
 0.13703826595E+03 0.10894824903E+03 0.81167794002E+02 0.57717820950E+02 0.40313570497E+02
 0.28153815572E+02 0.19484882904E+02 0.13510100535E+02 0.94929201863E+01 0.68013760440E+01
 0.49944486594E+01 0.37963660986E+01 0.34656847941E+01 0.29063833508E+01 0.26254144310E+01
 0.25389696804E+01 0.25852188298E+01 0.27310609405E+01 0.29630223428E+01 0.32691753003E+01
 0.36314438353E+01 0.40299839779E+01 0.44459518861E+01 0.48591619164E+01 0.52499291317E+01
 0.56061614664E+01 0.59257845333E+01 0.62145544020E+01 0.64927129067E+01 0.68126859578E+01
 0.72697149500E+01 0.79944920448E+01 0.91453416515E+01 0.10926503914E+02 0.13639678308E+02
 0.17755438936E+02 0.23970334628E+02 0.33170808855E+02 0.46310948807E+02 0.65568081887E+02
 0.93050070600E+02 0.12823616201E+03 0.16754092344E+03 0.20510512762E+03 0.23435636401E+03
 0.24970812248E+03 0.24794089901E+03 0.22905119454E+03 0.19641738758E+03 0.15610184700E+03
 0.11525742415E+03 0.80022801000E+02 0.53713986840E+02 0.36150719096E+02 0.24544099519E+02
 0.16672376867E+02 0.11489908838E+02 0.81017695901E+01 0.58729712687E+01 0.44063004232E+01
 0.39706158349E+01 0.32898273889E+01 0.29277183609E+01 0.27838131917E+01 0.27780897413E+01
 0.28651480635E+01 0.30252760198E+01 0.32408205682E+01 0.34890778744E+01 0.37521560515E+01
 0.40192805347E+01 0.42786910624E+01 0.45187307630E+01 0.47390818255E+01 0.49522700118E+01
 0.51754967157E+01 0.54366753582E+01 0.57972640812E+01 0.63627069268E+01 0.72697149500E+01
 0.86835353840E+01 0.10837849715E+02 0.14111581017E+02 0.19118841291E+02 0.26773627953E+02
 0.38222363962E+02 0.55306098574E+02 0.81745686412E+02 0.11965854075E+03 0.16754092344E+03
 0.22013760777E+03 0.26971677541E+03 0.30805356082E+03 0.32835296381E+03 0.32670899078E+03
 0.30300778921E+03 0.26117467786E+03 0.20852386471E+03 0.15405542178E+03 0.10599332992E+03
 0.69421607703E+02 0.45083438615E+02 0.29957245408E+02 0.20052256023E+02 0.13618018707E+02
 0.94906376680E+01 0.68254954964E+01 0.50894611633E+01 0.45552728817E+01 0.37638267089E+01
 0.33306310295E+01 0.31407559493E+01 0.30979284407E+01 0.31460358642E+01 0.32601038474E+01
 0.34166485924E+01 0.35873376571E+01 0.37549246591E+01 0.39150011055E+01 0.40615692864E+01
 0.41874712786E+01 0.43004410337E+01 0.44239973687E+01 0.45833871012E+01 0.48115903254E+01
 0.51778027172E+01 0.57972640812E+01 0.68126859578E+01 0.83970026757E+01 0.10814636492E+02
 0.14520880923E+02 0.20266682253E+02 0.29167822445E+02 0.42651286167E+02 0.63882354011E+02
 0.97503745899E+02 0.14542808299E+03 0.20510512762E+03 0.26971677541E+03 0.32991335999E+03
 0.37613565145E+03 0.40066903958E+03 0.39911585179E+03 0.37130648075E+03 0.32158806864E+03
 0.25821932619E+03 0.19163894656E+03 0.13180100051E+03 0.85399030193E+02 0.54179681759E+02
 0.35226994072E+02 0.23383357911E+02 0.15747425046E+02 0.10909134124E+02 0.78279325668E+01
 0.58390017376E+01 0.51975336168E+01 0.43140746643E+01 0.38243471197E+01 0.36012739057E+01
 0.35347769248E+01 0.35592886422E+01 0.36446790105E+01 0.37616703740E+01 0.38763798765E+01
 0.39715724732E+01 0.40479009631E+01 0.41038954122E+01 0.41356025055E+01 0.41565655961E+01
 0.41981828081E+01 0.42908917790E+01 0.44705036202E+01 0.48115903254E+01 0.54366753582E+01
 0.64927129067E+01 0.81583682878E+01 0.10722186525E+02 0.14698788306E+02 0.20944217240E+02
 0.30728043838E+02 0.45795294151E+02 0.70448541596E+02 0.10982600677E+03 0.16560158832E+03
 0.23435636401E+03 0.30805356082E+03 0.37613565145E+03 0.42809246668E+03 0.45560168459E+03
 0.45399834930E+03 0.42316014456E+03 0.36777198043E+03 0.29671528096E+03 0.22134218661E+03
 0.15275095857E+03 0.98791632544E+02 0.62036187669E+02 0.39789075794E+02 0.26325019090E+02
 0.17697385114E+02 0.12261491749E+02 0.88261966487E+01 0.66211579766E+01 0.58917975234E+01
 0.49414867841E+01 0.44114276010E+01 0.41660529502E+01 0.40855557675E+01 0.40966990237E+01
 0.41637152071E+01 0.42512463977E+01 0.43200908700E+01 0.43521944601E+01 0.43518479207E+01
 0.43221382893E+01 0.42634042880E+01 0.41946914907E+01 0.41532860024E+01 0.41730219039E+01
 0.42908917790E+01 0.45833871012E+01 0.51754967157E+01 0.62145544020E+01 0.78800702721E+01
 0.10470960443E+02 0.14530442585E+02 0.20967195168E+02 0.31130704117E+02 0.46987197803E+02
 0.73462861906E+02 0.11594766604E+03 0.17599565769E+03 0.24970812248E+03 0.32835296381E+03
 0.40066903958E+03 0.45560168459E+03 0.48452944416E+03 0.48274256152E+03 0.45027133668E+03
 0.39205870595E+03 0.31728732053E+03 0.23766664417E+03 0.16475100313E+03 0.10691286324E+03