   6   6   0   0
  0.1034193E+02  0.4584000E-09  0.4584000E-09  0.2953000E-09  0.5000000E-15
  1.000000000000000E-004
  CAR 
 TiO2                                    
     12.44331986    -54.68640502  301      5.53455234      1.00000000
    -54.686  0.0000E+00  0.0000E+00
    -54.463  0.0000E+00  0.0000E+00
    -54.239  0.0000E+00  0.0000E+00
    -54.015  0.0000E+00  0.0000E+00
    -53.791  0.0000E+00  0.0000E+00
    -53.568  0.0000E+00  0.0000E+00
    -53.344  0.0000E+00  0.0000E+00
    -53.120  0.0000E+00  0.0000E+00
    -52.896  0.0000E+00  0.0000E+00
    -52.673  0.0000E+00  0.0000E+00
    -52.449  0.0000E+00  0.0000E+00
    -52.225  0.0000E+00  0.0000E+00
    -52.001  0.0000E+00  0.0000E+00
    -51.777  0.0000E+00  0.0000E+00
    -51.554  0.1772E+02  0.4000E+01
    -51.330  0.0000E+00  0.4000E+01
    -51.106  0.0000E+00  0.4000E+01
    -50.882  0.0000E+00  0.4000E+01
    -50.659  0.0000E+00  0.4000E+01
    -50.435  0.0000E+00  0.4000E+01
    -50.211  0.0000E+00  0.4000E+01
    -49.987  0.0000E+00  0.4000E+01
    -49.764  0.0000E+00  0.4000E+01
    -49.540  0.0000E+00  0.4000E+01
    -49.316  0.0000E+00  0.4000E+01
    -49.092  0.0000E+00  0.4000E+01
    -48.868  0.0000E+00  0.4000E+01
    -48.645  0.0000E+00  0.4000E+01
    -48.421  0.0000E+00  0.4000E+01
    -48.197  0.0000E+00  0.4000E+01
    -47.973  0.0000E+00  0.4000E+01
    -47.750  0.0000E+00  0.4000E+01
    -47.526  0.0000E+00  0.4000E+01
    -47.302  0.0000E+00  0.4000E+01
    -47.078  0.0000E+00  0.4000E+01
    -46.855  0.0000E+00  0.4000E+01
    -46.631  0.0000E+00  0.4000E+01
    -46.407  0.0000E+00  0.4000E+01
    -46.183  0.0000E+00  0.4000E+01
    -45.960  0.0000E+00  0.4000E+01
    -45.736  0.0000E+00  0.4000E+01
    -45.512  0.0000E+00  0.4000E+01
    -45.288  0.0000E+00  0.4000E+01
    -45.064  0.0000E+00  0.4000E+01
    -44.841  0.0000E+00  0.4000E+01
    -44.617  0.0000E+00  0.4000E+01
    -44.393  0.0000E+00  0.4000E+01
    -44.169  0.0000E+00  0.4000E+01
    -43.946  0.0000E+00  0.4000E+01
    -43.722  0.0000E+00  0.4000E+01
    -43.498  0.0000E+00  0.4000E+01
    -43.274  0.0000E+00  0.4000E+01
    -43.051  0.0000E+00  0.4000E+01
    -42.827  0.0000E+00  0.4000E+01
    -42.603  0.0000E+00  0.4000E+01
    -42.379  0.0000E+00  0.4000E+01
    -42.156  0.0000E+00  0.4000E+01
    -41.932  0.0000E+00  0.4000E+01
    -41.708  0.0000E+00  0.4000E+01
    -41.484  0.0000E+00  0.4000E+01
    -41.260  0.0000E+00  0.4000E+01
    -41.037  0.0000E+00  0.4000E+01
    -40.813  0.0000E+00  0.4000E+01
    -40.589  0.0000E+00  0.4000E+01
    -40.365  0.0000E+00  0.4000E+01
    -40.142  0.0000E+00  0.4000E+01
    -39.918  0.0000E+00  0.4000E+01
    -39.694  0.0000E+00  0.4000E+01
    -39.470  0.0000E+00  0.4000E+01
    -39.247  0.0000E+00  0.4000E+01
    -39.023  0.0000E+00  0.4000E+01
    -38.799  0.0000E+00  0.4000E+01
    -38.575  0.0000E+00  0.4000E+01
    -38.352  0.0000E+00  0.4000E+01
    -38.128  0.0000E+00  0.4000E+01
    -37.904  0.0000E+00  0.4000E+01
    -37.680  0.0000E+00  0.4000E+01
    -37.456  0.0000E+00  0.4000E+01
    -37.233  0.0000E+00  0.4000E+01
    -37.009  0.0000E+00  0.4000E+01
    -36.785  0.0000E+00  0.4000E+01
    -36.561  0.0000E+00  0.4000E+01
    -36.338  0.0000E+00  0.4000E+01
    -36.114  0.0000E+00  0.4000E+01
    -35.890  0.0000E+00  0.4000E+01
    -35.666  0.0000E+00  0.4000E+01
    -35.443  0.0000E+00  0.4000E+01
    -35.219  0.0000E+00  0.4000E+01
    -34.995  0.0000E+00  0.4000E+01
    -34.771  0.0000E+00  0.4000E+01
    -34.547  0.0000E+00  0.4000E+01
    -34.324  0.0000E+00  0.4000E+01
    -34.100  0.0000E+00  0.4000E+01
    -33.876  0.0000E+00  0.4000E+01
    -33.652  0.0000E+00  0.4000E+01
    -33.429  0.0000E+00  0.4000E+01
    -33.205  0.0000E+00  0.4000E+01
    -32.981  0.0000E+00  0.4000E+01
    -32.757  0.0000E+00  0.4000E+01
    -32.534  0.0000E+00  0.4000E+01
    -32.310  0.0000E+00  0.4000E+01
    -32.086  0.0000E+00  0.4000E+01
    -31.862  0.0000E+00  0.4000E+01
    -31.639  0.0000E+00  0.4000E+01
    -31.415  0.0000E+00  0.4000E+01
    -31.191  0.0000E+00  0.4000E+01
    -30.967  0.0000E+00  0.4000E+01
    -30.743  0.0000E+00  0.4000E+01
    -30.520  0.0000E+00  0.4000E+01
    -30.296  0.0000E+00  0.4000E+01
    -30.072  0.0000E+00  0.4000E+01
    -29.848  0.0000E+00  0.4000E+01
    -29.625  0.0000E+00  0.4000E+01
    -29.401  0.0000E+00  0.4000E+01
    -29.177  0.0000E+00  0.4000E+01
    -28.953  0.0000E+00  0.4000E+01
    -28.730  0.0000E+00  0.4000E+01
    -28.506  0.0000E+00  0.4000E+01
    -28.282  0.0000E+00  0.4000E+01
    -28.058  0.4469E+01  0.5500E+01
    -27.835  0.9296E+01  0.9424E+01
    -27.611  0.0000E+00  0.1600E+02
    -27.387  0.0000E+00  0.1600E+02
    -27.163  0.0000E+00  0.1600E+02
    -26.939  0.0000E+00  0.1600E+02
    -26.716  0.0000E+00  0.1600E+02
    -26.492  0.0000E+00  0.1600E+02
    -26.268  0.0000E+00  0.1600E+02
    -26.044  0.0000E+00  0.1600E+02
    -25.821  0.0000E+00  0.1600E+02
    -25.597  0.0000E+00  0.1600E+02
    -25.373  0.0000E+00  0.1600E+02
    -25.149  0.0000E+00  0.1600E+02
    -24.926  0.0000E+00  0.1600E+02
    -24.702  0.0000E+00  0.1600E+02
    -24.478  0.0000E+00  0.1600E+02
    -24.254  0.0000E+00  0.1600E+02
    -24.030  0.0000E+00  0.1600E+02
    -23.807  0.0000E+00  0.1600E+02
    -23.583  0.0000E+00  0.1600E+02
    -23.359  0.0000E+00  0.1600E+02
    -23.135  0.0000E+00  0.1600E+02
    -22.912  0.0000E+00  0.1600E+02
    -22.688  0.0000E+00  0.1600E+02
    -22.464  0.0000E+00  0.1600E+02
    -22.240  0.0000E+00  0.1600E+02
    -22.017  0.0000E+00  0.1600E+02
    -21.793  0.0000E+00  0.1600E+02
    -21.569  0.0000E+00  0.1600E+02
    -21.345  0.0000E+00  0.1600E+02
    -21.122  0.0000E+00  0.1600E+02
    -20.898  0.0000E+00  0.1600E+02
    -20.674  0.0000E+00  0.1600E+02
    -20.450  0.0000E+00  0.1600E+02
    -20.226  0.0000E+00  0.1600E+02
    -20.003  0.0000E+00  0.1600E+02
    -19.779  0.0000E+00  0.1600E+02
    -19.555  0.0000E+00  0.1600E+02
    -19.331  0.0000E+00  0.1600E+02
    -19.108  0.0000E+00  0.1600E+02
    -18.884  0.0000E+00  0.1600E+02
    -18.660  0.0000E+00  0.1600E+02
    -18.436  0.0000E+00  0.1600E+02
    -18.213  0.0000E+00  0.1600E+02
    -17.989  0.0000E+00  0.1600E+02
    -17.765  0.0000E+00  0.1600E+02
    -17.541  0.0000E+00  0.1600E+02
    -17.318  0.0000E+00  0.1600E+02
    -17.094  0.0000E+00  0.1600E+02
    -16.870  0.0000E+00  0.1600E+02
    -16.646  0.0000E+00  0.1600E+02
    -16.422  0.0000E+00  0.1600E+02
    -16.199  0.0000E+00  0.1600E+02
    -15.975  0.0000E+00  0.1600E+02
    -15.751  0.0000E+00  0.1600E+02
    -15.527  0.0000E+00  0.1600E+02
    -15.304  0.0000E+00  0.1600E+02
    -15.080  0.0000E+00  0.1600E+02
    -14.856  0.0000E+00  0.1600E+02
    -14.632  0.0000E+00  0.1600E+02
    -14.409  0.0000E+00  0.1600E+02
    -14.185  0.0000E+00  0.1600E+02
    -13.961  0.0000E+00  0.1600E+02
    -13.737  0.0000E+00  0.1600E+02
    -13.514  0.0000E+00  0.1600E+02
    -13.290  0.0000E+00  0.1600E+02
    -13.066  0.0000E+00  0.1600E+02
    -12.842  0.1145E+00  0.1603E+02
    -12.618  0.2793E+00  0.1615E+02
    -12.395  0.2793E+00  0.1637E+02
    -12.171  0.9085E+00  0.1686E+02
    -11.947  0.4267E+00  0.1739E+02
    -11.723  0.1805E+01  0.1891E+02
    -11.500  0.1305E+01  0.1992E+02
    -11.276  0.4352E+01  0.2236E+02
    -11.052  0.9899E+00  0.2398E+02
    -10.828  0.0000E+00  0.2400E+02
    -10.605  0.0000E+00  0.2400E+02
    -10.381  0.0000E+00  0.2400E+02
    -10.157  0.0000E+00  0.2400E+02
     -9.933  0.0000E+00  0.2400E+02
     -9.709  0.0000E+00  0.2400E+02
     -9.486  0.0000E+00  0.2400E+02
     -9.262  0.0000E+00  0.2400E+02
     -9.038  0.0000E+00  0.2400E+02
     -8.814  0.0000E+00  0.2400E+02
     -8.591  0.0000E+00  0.2400E+02
     -8.367  0.0000E+00  0.2400E+02
     -8.143  0.0000E+00  0.2400E+02
     -7.919  0.0000E+00  0.2400E+02
     -7.696  0.0000E+00  0.2400E+02
     -7.472  0.0000E+00  0.2400E+02
     -7.248  0.0000E+00  0.2400E+02
     -7.024  0.0000E+00  0.2400E+02
     -6.801  0.0000E+00  0.2400E+02
     -6.577  0.0000E+00  0.2400E+02
     -6.353  0.0000E+00  0.2400E+02
     -6.129  0.0000E+00  0.2400E+02
     -5.905  0.0000E+00  0.2400E+02
     -5.682  0.0000E+00  0.2400E+02
     -5.458  0.0000E+00  0.2400E+02
     -5.234  0.0000E+00  0.2400E+02
     -5.010  0.0000E+00  0.2400E+02
     -4.787  0.0000E+00  0.2400E+02
     -4.563  0.0000E+00  0.2400E+02
     -4.339  0.0000E+00  0.2400E+02
     -4.115  0.0000E+00  0.2400E+02
     -3.892  0.0000E+00  0.2400E+02
     -3.668  0.0000E+00  0.2400E+02
     -3.444  0.0000E+00  0.2400E+02
     -3.220  0.0000E+00  0.2400E+02
     -2.997  0.0000E+00  0.2400E+02
     -2.773  0.0000E+00  0.2400E+02
     -2.549  0.0000E+00  0.2400E+02
     -2.325  0.0000E+00  0.2400E+02
     -2.101  0.0000E+00  0.2400E+02
     -1.878  0.0000E+00  0.2400E+02
     -1.654  0.0000E+00  0.2400E+02
     -1.430  0.0000E+00  0.2400E+02
     -1.206  0.0000E+00  0.2400E+02
     -0.983  0.0000E+00  0.2400E+02
     -0.759  0.0000E+00  0.2400E+02
     -0.535  0.4161E-03  0.2400E+02
     -0.311  0.1151E+00  0.2405E+02
     -0.088  0.4366E+00  0.2434E+02
      0.136  0.2658E+00  0.2471E+02
      0.360  0.1333E+01  0.2549E+02
      0.584  0.1763E+01  0.2692E+02
      0.808  0.3191E+01  0.2843E+02
      1.031  0.1902E+01  0.2985E+02
      1.255  0.2526E+01  0.3142E+02
      1.479  0.2127E+01  0.3229E+02
      1.703  0.1302E+01  0.3310E+02
      1.926  0.1692E+01  0.3411E+02
      2.150  0.1601E+01  0.3485E+02
      2.374  0.1452E+01  0.3570E+02
      2.598  0.2117E+01  0.3677E+02
      2.821  0.2386E+01  0.3810E+02
      3.045  0.2209E+01  0.3944E+02
      3.269  0.1286E+01  0.4039E+02
      3.493  0.2334E+01  0.4181E+02
      3.716  0.1955E+01  0.4287E+02
      3.940  0.1466E+01  0.4413E+02
      4.164  0.1919E+01  0.4521E+02
      4.388  0.1711E+01  0.4628E+02
      4.612  0.8275E+00  0.4727E+02
      4.835  0.6955E+00  0.4774E+02
      5.059  0.2893E+00  0.4788E+02
      5.283  0.1048E+00  0.4800E+02
      5.507  0.0000E+00  0.4800E+02
      5.730  0.0000E+00  0.4800E+02
      5.954  0.0000E+00  0.4800E+02
      6.178  0.0000E+00  0.4800E+02
      6.402  0.0000E+00  0.4800E+02
      6.625  0.0000E+00  0.4800E+02
      6.849  0.0000E+00  0.4800E+02
      7.073  0.0000E+00  0.4800E+02
      7.297  0.4968E+00  0.4819E+02
      7.520  0.1764E+01  0.4905E+02
      7.744  0.1393E+01  0.5011E+02
      7.968  0.3252E+01  0.5182E+02
      8.192  0.2076E+01  0.5307E+02
      8.416  0.2476E+01  0.5464E+02
      8.639  0.2095E+00  0.5598E+02
      8.863  0.3491E-01  0.5599E+02
      9.087  0.0000E+00  0.5599E+02
      9.311  0.0000E+00  0.5599E+02
      9.534  0.0000E+00  0.5600E+02
      9.758  0.0000E+00  0.5600E+02
      9.982  0.0000E+00  0.5600E+02
     10.206  0.0000E+00  0.5600E+02
     10.429  0.0000E+00  0.5600E+02
     10.653  0.0000E+00  0.5600E+02
     10.877  0.0000E+00  0.5600E+02
     11.101  0.0000E+00  0.5600E+02
     11.324  0.0000E+00  0.5600E+02
     11.548  0.0000E+00  0.5600E+02
     11.772  0.0000E+00  0.5600E+02
     11.996  0.0000E+00  0.5600E+02
     12.220  0.0000E+00  0.5600E+02
     12.443  0.0000E+00  0.5600E+02
