       N       E                     dE             d eps       ncg     rms          rms(c)
DAV:   1    -0.139078336798E+05   -0.13908E+05   -0.10039E+06 65440   0.255E+03
