   6   6   0   0
  0.1034193E+02  0.4584000E-09  0.4584000E-09  0.2953000E-09  0.5000000E-15
  1.000000000000000E-004
  CAR 
 TiO2                                    
     12.97545463    -55.46091248  301      5.73260578      1.00000000
    -55.461  0.0000E+00  0.0000E+00
    -55.233  0.0000E+00  0.0000E+00
    -55.005  0.0000E+00  0.0000E+00
    -54.777  0.0000E+00  0.0000E+00
    -54.548  0.0000E+00  0.0000E+00
    -54.320  0.0000E+00  0.0000E+00
    -54.092  0.0000E+00  0.0000E+00
    -53.864  0.0000E+00  0.0000E+00
    -53.636  0.0000E+00  0.0000E+00
    -53.408  0.0000E+00  0.0000E+00
    -53.180  0.0000E+00  0.0000E+00
    -52.952  0.0000E+00  0.0000E+00
    -52.723  0.0000E+00  0.0000E+00
    -52.495  0.0000E+00  0.0000E+00
    -52.267  0.1641E+02  0.4000E+01
    -52.039  0.0000E+00  0.4000E+01
    -51.811  0.0000E+00  0.4000E+01
    -51.583  0.0000E+00  0.4000E+01
    -51.355  0.0000E+00  0.4000E+01
    -51.127  0.0000E+00  0.4000E+01
    -50.898  0.0000E+00  0.4000E+01
    -50.670  0.0000E+00  0.4000E+01
    -50.442  0.0000E+00  0.4000E+01
    -50.214  0.0000E+00  0.4000E+01
    -49.986  0.0000E+00  0.4000E+01
    -49.758  0.0000E+00  0.4000E+01
    -49.530  0.0000E+00  0.4000E+01
    -49.302  0.0000E+00  0.4000E+01
    -49.074  0.0000E+00  0.4000E+01
    -48.845  0.0000E+00  0.4000E+01
    -48.617  0.0000E+00  0.4000E+01
    -48.389  0.0000E+00  0.4000E+01
    -48.161  0.0000E+00  0.4000E+01
    -47.933  0.0000E+00  0.4000E+01
    -47.705  0.0000E+00  0.4000E+01
    -47.477  0.0000E+00  0.4000E+01
    -47.249  0.0000E+00  0.4000E+01
    -47.020  0.0000E+00  0.4000E+01
    -46.792  0.0000E+00  0.4000E+01
    -46.564  0.0000E+00  0.4000E+01
    -46.336  0.0000E+00  0.4000E+01
    -46.108  0.0000E+00  0.4000E+01
    -45.880  0.0000E+00  0.4000E+01
    -45.652  0.0000E+00  0.4000E+01
    -45.424  0.0000E+00  0.4000E+01
    -45.195  0.0000E+00  0.4000E+01
    -44.967  0.0000E+00  0.4000E+01
    -44.739  0.0000E+00  0.4000E+01
    -44.511  0.0000E+00  0.4000E+01
    -44.283  0.0000E+00  0.4000E+01
    -44.055  0.0000E+00  0.4000E+01
    -43.827  0.0000E+00  0.4000E+01
    -43.599  0.0000E+00  0.4000E+01
    -43.370  0.0000E+00  0.4000E+01
    -43.142  0.0000E+00  0.4000E+01
    -42.914  0.0000E+00  0.4000E+01
    -42.686  0.0000E+00  0.4000E+01
    -42.458  0.0000E+00  0.4000E+01
    -42.230  0.0000E+00  0.4000E+01
    -42.002  0.0000E+00  0.4000E+01
    -41.774  0.0000E+00  0.4000E+01
    -41.546  0.0000E+00  0.4000E+01
    -41.317  0.0000E+00  0.4000E+01
    -41.089  0.0000E+00  0.4000E+01
    -40.861  0.0000E+00  0.4000E+01
    -40.633  0.0000E+00  0.4000E+01
    -40.405  0.0000E+00  0.4000E+01
    -40.177  0.0000E+00  0.4000E+01
    -39.949  0.0000E+00  0.4000E+01
    -39.721  0.0000E+00  0.4000E+01
    -39.492  0.0000E+00  0.4000E+01
    -39.264  0.0000E+00  0.4000E+01
    -39.036  0.0000E+00  0.4000E+01
    -38.808  0.0000E+00  0.4000E+01
    -38.580  0.0000E+00  0.4000E+01
    -38.352  0.0000E+00  0.4000E+01
    -38.124  0.0000E+00  0.4000E+01
    -37.896  0.0000E+00  0.4000E+01
    -37.667  0.0000E+00  0.4000E+01
    -37.439  0.0000E+00  0.4000E+01
    -37.211  0.0000E+00  0.4000E+01
    -36.983  0.0000E+00  0.4000E+01
    -36.755  0.0000E+00  0.4000E+01
    -36.527  0.0000E+00  0.4000E+01
    -36.299  0.0000E+00  0.4000E+01
    -36.071  0.0000E+00  0.4000E+01
    -35.842  0.0000E+00  0.4000E+01
    -35.614  0.0000E+00  0.4000E+01
    -35.386  0.0000E+00  0.4000E+01
    -35.158  0.0000E+00  0.4000E+01
    -34.930  0.0000E+00  0.4000E+01
    -34.702  0.0000E+00  0.4000E+01
    -34.474  0.0000E+00  0.4000E+01
    -34.246  0.0000E+00  0.4000E+01
    -34.018  0.0000E+00  0.4000E+01
    -33.789  0.0000E+00  0.4000E+01
    -33.561  0.0000E+00  0.4000E+01
    -33.333  0.0000E+00  0.4000E+01
    -33.105  0.0000E+00  0.4000E+01
    -32.877  0.0000E+00  0.4000E+01
    -32.649  0.0000E+00  0.4000E+01
    -32.421  0.0000E+00  0.4000E+01
    -32.193  0.0000E+00  0.4000E+01
    -31.964  0.0000E+00  0.4000E+01
    -31.736  0.0000E+00  0.4000E+01
    -31.508  0.0000E+00  0.4000E+01
    -31.280  0.0000E+00  0.4000E+01
    -31.052  0.0000E+00  0.4000E+01
    -30.824  0.0000E+00  0.4000E+01
    -30.596  0.0000E+00  0.4000E+01
    -30.368  0.0000E+00  0.4000E+01
    -30.139  0.0000E+00  0.4000E+01
    -29.911  0.0000E+00  0.4000E+01
    -29.683  0.0000E+00  0.4000E+01
    -29.455  0.0000E+00  0.4000E+01
    -29.227  0.0000E+00  0.4000E+01
    -28.999  0.0000E+00  0.4000E+01
    -28.771  0.7296E+01  0.5664E+01
    -28.543  0.9317E+01  0.8114E+01
    -28.314  0.4384E+01  0.1600E+02
    -28.086  0.0000E+00  0.1600E+02
    -27.858  0.0000E+00  0.1600E+02
    -27.630  0.0000E+00  0.1600E+02
    -27.402  0.0000E+00  0.1600E+02
    -27.174  0.0000E+00  0.1600E+02
    -26.946  0.0000E+00  0.1600E+02
    -26.718  0.0000E+00  0.1600E+02
    -26.490  0.0000E+00  0.1600E+02
    -26.261  0.0000E+00  0.1600E+02
    -26.033  0.0000E+00  0.1600E+02
    -25.805  0.0000E+00  0.1600E+02
    -25.577  0.0000E+00  0.1600E+02
    -25.349  0.0000E+00  0.1600E+02
    -25.121  0.0000E+00  0.1600E+02
    -24.893  0.0000E+00  0.1600E+02
    -24.665  0.0000E+00  0.1600E+02
    -24.436  0.0000E+00  0.1600E+02
    -24.208  0.0000E+00  0.1600E+02
    -23.980  0.0000E+00  0.1600E+02
    -23.752  0.0000E+00  0.1600E+02
    -23.524  0.0000E+00  0.1600E+02
    -23.296  0.0000E+00  0.1600E+02
    -23.068  0.0000E+00  0.1600E+02
    -22.840  0.0000E+00  0.1600E+02
    -22.611  0.0000E+00  0.1600E+02
    -22.383  0.0000E+00  0.1600E+02
    -22.155  0.0000E+00  0.1600E+02
    -21.927  0.0000E+00  0.1600E+02
    -21.699  0.0000E+00  0.1600E+02
    -21.471  0.0000E+00  0.1600E+02
    -21.243  0.0000E+00  0.1600E+02
    -21.015  0.0000E+00  0.1600E+02
    -20.786  0.0000E+00  0.1600E+02
    -20.558  0.0000E+00  0.1600E+02
    -20.330  0.0000E+00  0.1600E+02
    -20.102  0.0000E+00  0.1600E+02
    -19.874  0.0000E+00  0.1600E+02
    -19.646  0.0000E+00  0.1600E+02
    -19.418  0.0000E+00  0.1600E+02
    -19.190  0.0000E+00  0.1600E+02
    -18.962  0.0000E+00  0.1600E+02
    -18.733  0.0000E+00  0.1600E+02
    -18.505  0.0000E+00  0.1600E+02
    -18.277  0.0000E+00  0.1600E+02
    -18.049  0.0000E+00  0.1600E+02
    -17.821  0.0000E+00  0.1600E+02
    -17.593  0.0000E+00  0.1600E+02
    -17.365  0.0000E+00  0.1600E+02
    -17.137  0.0000E+00  0.1600E+02
    -16.908  0.0000E+00  0.1600E+02
    -16.680  0.0000E+00  0.1600E+02
    -16.452  0.0000E+00  0.1600E+02
    -16.224  0.0000E+00  0.1600E+02
    -15.996  0.0000E+00  0.1600E+02
    -15.768  0.0000E+00  0.1600E+02
    -15.540  0.0000E+00  0.1600E+02
    -15.312  0.0000E+00  0.1600E+02
    -15.083  0.0000E+00  0.1600E+02
    -14.855  0.0000E+00  0.1600E+02
    -14.627  0.0000E+00  0.1600E+02
    -14.399  0.0000E+00  0.1600E+02
    -14.171  0.0000E+00  0.1600E+02
    -13.943  0.0000E+00  0.1600E+02
    -13.715  0.0000E+00  0.1600E+02
    -13.487  0.0000E+00  0.1600E+02
    -13.258  0.0000E+00  0.1600E+02
    -13.030  0.0000E+00  0.1600E+02
    -12.802  0.4368E-04  0.1600E+02
    -12.574  0.1875E+00  0.1625E+02
    -12.346  0.1359E+00  0.1638E+02
    -12.118  0.1940E+00  0.1650E+02
    -11.890  0.4304E+00  0.1739E+02
    -11.662  0.5439E+00  0.1768E+02
    -11.434  0.1839E+01  0.1914E+02
    -11.205  0.1702E+01  0.2047E+02
    -10.977  0.5761E+01  0.2303E+02
    -10.749  0.0000E+00  0.2400E+02
    -10.521  0.0000E+00  0.2400E+02
    -10.293  0.0000E+00  0.2400E+02
    -10.065  0.0000E+00  0.2400E+02
     -9.837  0.0000E+00  0.2400E+02
     -9.609  0.0000E+00  0.2400E+02
     -9.380  0.0000E+00  0.2400E+02
     -9.152  0.0000E+00  0.2400E+02
     -8.924  0.0000E+00  0.2400E+02
     -8.696  0.0000E+00  0.2400E+02
     -8.468  0.0000E+00  0.2400E+02
     -8.240  0.0000E+00  0.2400E+02
     -8.012  0.0000E+00  0.2400E+02
     -7.784  0.0000E+00  0.2400E+02
     -7.555  0.0000E+00  0.2400E+02
     -7.327  0.0000E+00  0.2400E+02
     -7.099  0.0000E+00  0.2400E+02
     -6.871  0.0000E+00  0.2400E+02
     -6.643  0.0000E+00  0.2400E+02
     -6.415  0.0000E+00  0.2400E+02
     -6.187  0.0000E+00  0.2400E+02
     -5.959  0.0000E+00  0.2400E+02
     -5.730  0.0000E+00  0.2400E+02
     -5.502  0.0000E+00  0.2400E+02
     -5.274  0.0000E+00  0.2400E+02
     -5.046  0.0000E+00  0.2400E+02
     -4.818  0.0000E+00  0.2400E+02
     -4.590  0.0000E+00  0.2400E+02
     -4.362  0.0000E+00  0.2400E+02
     -4.134  0.0000E+00  0.2400E+02
     -3.906  0.0000E+00  0.2400E+02
     -3.677  0.0000E+00  0.2400E+02
     -3.449  0.0000E+00  0.2400E+02
     -3.221  0.0000E+00  0.2400E+02
     -2.993  0.0000E+00  0.2400E+02
     -2.765  0.0000E+00  0.2400E+02
     -2.537  0.0000E+00  0.2400E+02
     -2.309  0.0000E+00  0.2400E+02
     -2.081  0.0000E+00  0.2400E+02
     -1.852  0.0000E+00  0.2400E+02
     -1.624  0.0000E+00  0.2400E+02
     -1.396  0.0000E+00  0.2400E+02
     -1.168  0.0000E+00  0.2400E+02
     -0.940  0.0000E+00  0.2400E+02
     -0.712  0.0000E+00  0.2400E+02
     -0.484  0.0000E+00  0.2400E+02
     -0.256  0.4545E+00  0.2410E+02
     -0.027  0.3497E+00  0.2428E+02
      0.201  0.4165E+00  0.2483E+02
      0.429  0.6558E+00  0.2531E+02
      0.657  0.2008E+01  0.2660E+02
      0.885  0.1352E+01  0.2789E+02
      1.113  0.9581E+00  0.2881E+02
      1.341  0.8927E+00  0.2940E+02
      1.569  0.2078E+01  0.3062E+02
      1.798  0.5243E+01  0.3262E+02
      2.026  0.1716E+01  0.3336E+02
      2.254  0.1696E+01  0.3455E+02
      2.482  0.1033E+01  0.3530E+02
      2.710  0.1196E+01  0.3607E+02
      2.938  0.1930E+01  0.3808E+02
      3.166  0.6201E+00  0.3876E+02
      3.394  0.6346E+00  0.3930E+02
      3.622  0.1971E+01  0.4068E+02
      3.851  0.1072E+01  0.4169E+02
      4.079  0.2132E+01  0.4293E+02
      4.307  0.1987E+01  0.4439E+02
      4.535  0.2147E+01  0.4552E+02
      4.763  0.1758E+01  0.4642E+02
      4.991  0.5071E+00  0.4737E+02
      5.219  0.1892E+00  0.4767E+02
      5.447  0.1951E+00  0.4778E+02
      5.676  0.2922E+00  0.4800E+02
      5.904  0.0000E+00  0.4800E+02
      6.132  0.0000E+00  0.4800E+02
      6.360  0.0000E+00  0.4800E+02
      6.588  0.0000E+00  0.4800E+02
      6.816  0.0000E+00  0.4800E+02
      7.044  0.0000E+00  0.4800E+02
      7.272  0.0000E+00  0.4800E+02
      7.501  0.0000E+00  0.4800E+02
      7.729  0.0000E+00  0.4800E+02
      7.957  0.1054E+01  0.4824E+02
      8.185  0.1409E+01  0.4925E+02
      8.413  0.1254E+01  0.5002E+02
      8.641  0.3885E+01  0.5155E+02
      8.869  0.1261E+01  0.5274E+02
      9.097  0.1620E+01  0.5363E+02
      9.326  0.8225E+00  0.5459E+02
      9.554  0.3743E+00  0.5582E+02
      9.782  0.1857E+00  0.5598E+02
     10.010  0.0000E+00  0.5600E+02
     10.238  0.0000E+00  0.5600E+02
     10.466  0.0000E+00  0.5600E+02
     10.694  0.0000E+00  0.5600E+02
     10.922  0.0000E+00  0.5600E+02
     11.150  0.0000E+00  0.5600E+02
     11.379  0.0000E+00  0.5600E+02
     11.607  0.0000E+00  0.5600E+02
     11.835  0.0000E+00  0.5600E+02
     12.063  0.0000E+00  0.5600E+02
     12.291  0.0000E+00  0.5600E+02
     12.519  0.0000E+00  0.5600E+02
     12.747  0.0000E+00  0.5600E+02
     12.975  0.0000E+00  0.5600E+02
