TiO2                                    
   1.00000000000000     
     4.584000    0.000000    0.000000
     0.000000    4.584000    0.000000
     0.000000    0.000000    2.953000
   Ti   O 
     2     4
Direct
  0.000000  0.000000  0.000000
  0.500000  0.500000  0.500000
  0.195420  0.804580  0.500000
  0.804580  0.195420  0.500000
  0.304580  0.304580  0.000000
  0.695420  0.695420  0.000000
 
   56   56   32
  926.72      900.22      824.98      712.79      580.17      444.52      320.45      217.31      138.74      83.793    
  48.723      28.560      18.185      12.958      9.9081      8.0887      6.9527      6.1578      5.5159      4.9431    
  4.4148      3.9312      3.4971      3.1177      2.7992      2.5466      2.3629      2.2504      2.2124      2.2504    
  2.3629      2.5466      2.7992      3.1177      3.4971      3.9312      4.4148      4.9431      5.5159      6.1578    
  6.9527      8.0887      9.9081      12.958      18.185      28.560      48.723      83.793      138.74      217.31    
  320.45      444.52      580.17      712.79      824.98      900.22      900.22      874.56      801.69      693.10    
  564.76      433.47      313.22      213.07      136.60      83.019      48.810      29.194      19.156      14.096    
  11.134      9.3611      8.2362      7.4192      6.7245      6.0721      5.4429      4.8435      4.2846      3.7767    
  3.3303      2.9537      2.6520      2.4284      2.2856      2.2238      2.2396      2.3283      2.4864      2.7110    
  2.9982      3.3444      3.7478      4.2072      4.7260      5.3301      6.1014      7.2204      9.0169      12.021    
  17.129      27.144      46.561      80.383      133.51      209.68      309.88      430.61      562.70      691.90    
  801.17      874.41      824.98      801.69      735.27      636.27      519.27      399.47      289.57      197.82    
  127.60      78.375      47.039      29.218      20.186      15.567      12.837      11.190      10.111      9.2738    
  8.5057      7.7374      6.9610      6.1936      5.4559      4.7668      4.1431      3.5984      3.1416      2.7782    
  2.5112      2.3399      2.2591      2.2617      2.3416      2.4936      2.7131      2.9971      3.3454      3.7587    
  4.2421      4.8196      5.5654      6.6440      8.3579      11.198      15.946      24.997      42.523      73.202    
  121.61      191.23      283.01      393.71      514.92      633.53      733.87      801.17      712.79      693.10    
  636.27      551.42      451.01      348.02      253.33      174.07      113.33      70.839      44.019      29.014    
  21.519      17.573      15.232      13.808      12.821      11.969      11.099      10.159      9.1626      8.1445    
  7.1433      6.1921      5.3181      4.5417      3.8764      3.3301      2.9058      2.6018      2.4110      2.3232    
  2.3285      2.4178      2.5835      2.8215      3.1311      3.5139      3.9743      4.5329      5.2519      6.2723    
  7.8580      10.442      14.674      22.358      37.166      63.285      104.78      164.70      243.86      339.44    
  444.16      546.69      633.53      691.90      580.17      564.76      519.27      451.01      369.99      286.68    
  209.85      145.42      96.100      61.864      40.642      29.122      23.485      20.423      18.662      17.592    
  16.768      15.914      14.899      13.700      12.363      10.956      9.5511      8.2063      6.9668      5.8630    
  4.9124      4.1226      3.4942      3.0220      2.6957      2.5016      2.4247      2.4505      2.5671      2.7667    
  3.0469      3.4078      3.8528      4.3971      5.0885      6.0400      7.4693      9.7395      13.386      19.566    
  31.254      52.052      85.409      133.87      198.07      275.67      360.76      444.16      514.92      562.70    
  444.52      433.47      399.47      348.02      286.68      223.35      164.82      115.76      78.492      53.096    
  37.923      30.153      26.485      24.585      23.656      23.131      22.583      21.752      20.529      18.934    
  17.062      15.042      13.001      11.047      9.2554      7.6740      6.3227      5.2031      4.3064      3.6183    
  3.1212      2.7951      2.6191      2.5720      2.6358      2.7978      3.0513      3.3939      3.8265      4.3581    
  5.0217      5.9008      7.1634      9.0971      12.132      16.944      25.566      40.978      66.010      102.70    
  151.54      210.71      275.67      339.44      393.71      430.61      320.45      313.22      289.57      253.33    
  209.85      164.82      123.22      88.636      62.884      46.066      36.796      32.671      31.059      30.698    
  30.952      31.251      31.154      30.393      28.882      26.689      23.990      21.009      17.970      15.065    
  12.429      10.135      8.2066      6.6309      5.3773      4.4107      3.6976      3.2065      2.9075      2.7716    
  2.7731      2.8924      3.1170      3.4402      3.8594      4.3774      5.0128      5.8211      6.9216      8.5278    
  10.967      14.678      20.695      31.279      48.694      74.561      109.28      151.54      198.07      243.86    
  283.01      309.88      217.31      213.07      197.82      174.07      145.42      115.76      88.636      66.617    
  51.037      41.876      37.904      37.092      37.862      39.533      41.439      42.976      43.633      43.054    
  41.134      38.025      34.065      29.636      25.084      20.733      16.817      13.462      10.696      8.4802    
  6.7460      5.4188      4.4340      3.7388      3.2884      3.0433      2.9686      3.0360      3.2255      3.5246    
  3.9259      4.4263      5.0321      5.7735      6.7269      8.0379      9.9391      12.749      16.901      23.665    
  34.815      51.650      74.561      102.70      133.87      164.70      191.23      209.68      138.74      136.60    
  127.60      113.33      96.100      78.492      62.884      51.037      43.796      40.967      41.432      43.837    
  47.541      52.049      56.693      60.576      62.799      62.725      60.155      55.371      49.042      42.013    
  35.044      28.579      22.804      17.911      13.946      10.837      8.4543      6.6596      5.3353      4.3911    
  3.7581      3.3811      3.2137      3.2172      3.3626      3.6299      4.0061      4.4824      5.0548      5.7336    
  6.5592      7.6202      9.0688      11.122      14.045      18.236      24.804      34.815      48.694      66.010    
  85.409      104.78      121.61      133.51      83.793      83.019      78.375      70.839      61.864      53.096    
  46.066      41.876      40.967      43.017      47.259      53.376      61.309      70.499      79.764      87.576    
  92.448      93.327      89.854      82.459      72.245      60.708      49.336      39.212      30.737      23.724    
  18.109      13.784      10.539      8.1442      6.4000      5.1572      4.3088      3.7765      3.4988      3.4251    
  3.5157      3.7418      4.0840      4.5275      5.0607      5.6791      6.3958      7.2550      8.3452      9.8028    
  11.801      14.520      18.236      23.665      31.279      40.978      52.052      63.285      73.202      80.383    
  48.723      48.810      47.039      44.019      40.642      37.923      36.796      37.904      41.432      47.259    
  55.535      66.805      80.992      96.998      112.87      126.23      134.85      137.16      132.59      121.72    
  106.13      88.110      70.088      54.043      41.037      31.036      23.273      17.369      13.018      9.8704    
  7.6170      6.0234      4.9275      4.2180      3.8134      3.6491      3.6739      3.8490      4.1473      4.5484    
  5.0349      5.5925      6.2153      6.9161      7.7365      8.7527      10.069      11.801      14.045      16.901    
  20.695      25.566      31.254      37.166      42.523      46.561      28.560      29.194      29.218      29.014    
  29.122      30.153      32.671      37.092      43.837      53.376      66.805      84.930      107.27      131.97    
  156.10      176.32      189.56      193.71      187.95      172.97      150.88      124.79      98.176      74.107    
  54.541      39.944      29.400      21.563      15.864      11.812      8.9614      6.9681      5.5964      4.6912    
  4.1458      3.8796      3.8285      3.9434      4.1887      4.5381      4.9698      5.4636      6.0026      6.5789    
  7.2029      7.9088      8.7527      9.8028      11.122      12.749      14.678      16.944      19.566      22.358    
  24.997      27.144      18.185      19.156      20.186      21.519      23.485      26.485      31.059      37.862    
  47.541      61.309      80.992      107.27      139.09      173.66      206.99      234.76      253.08      259.29    
  252.34      233.03      203.92      168.91      132.53      99.004      71.328      50.665      36.296      26.228    
  18.988      13.909      10.390      7.9591      6.2919      5.1793      4.4842      4.1080      3.9736      4.0210    
  4.2059      4.4958      4.8654      5.2916      5.7516      6.2265      6.7077      7.2029      7.7365      8.3452    
  9.0688      9.9391      10.967      12.132      13.386      14.674      15.946      17.129      12.958      14.096    
  15.567      17.573      20.423      24.585      30.698      39.533      52.049      70.499      96.998      131.97    
  173.66      218.30      260.89      296.14      319.47      327.73      319.67      296.18      260.23      216.39    
  170.13      126.75      90.311      62.770      43.762      31.094      22.227      16.061      11.839      8.9544    
  6.9856      5.6634      4.8167      4.3276      4.1062      4.0818      4.2015      4.4269      4.7292      5.0838    
  5.4664      5.8533      6.2265      6.5789      6.9161      7.2550      7.6202      8.0379      8.5278      9.0971    
  9.7395      10.442      11.198      12.021      9.9081      11.134      12.837      15.232      18.662      23.656    
  30.952      41.439      56.693      79.764      112.87      156.10      206.99      260.89      311.84      353.80    
  381.58      391.62      382.56      355.40      313.42      261.75      206.59      154.14      109.40      75.090    
  51.290      35.787      25.347      18.128      13.226      9.9037      7.6466      6.1248      5.1332      4.5347    
  4.2273      4.1306      4.1835      4.3420      4.5745      4.8554      5.1607      5.4664      5.7516      6.0026    
  6.2153      6.3958      6.5592      6.7269      6.9216      7.1634      7.4693      7.8580      8.3579      9.0169    
  8.0887      9.3611      11.190      13.808      17.592      23.131      31.251      42.976      60.576      87.576    
  126.23      176.32      234.76      296.14      353.80      401.07      432.29      443.67      433.76      403.70    
  357.04      299.29      237.17      177.50      125.98      85.994      58.016      39.908      28.075      19.950    
  14.457      10.754      8.2448      6.5479      5.4275      4.7300      4.3424      4.1763      4.1638      4.2561    
  4.4189      4.6264      4.8554      5.0838      5.2916      5.4636      5.5925      5.6791      5.7336      5.7735    
  5.8211      5.9008      6.0400      6.2723      6.6440      7.2204      6.9527      8.2362      10.111      12.821    
  16.768      22.583      31.154      43.633      62.799      92.448      134.85      189.56      253.08      319.47    
  381.58      432.29      465.70      477.84      467.30      435.34      385.73      324.20      257.73      193.50    
  137.60      93.834      62.984      43.004      30.147      21.370      15.443      11.455      8.7545      6.9212    
  5.6978      4.9179      4.4607      4.2315      4.1575      4.1865      4.2823      4.4189      4.5745      4.7292    
  4.8654      4.9698      5.0349      5.0607      5.0548      5.0321      5.0128      5.0217      5.0885      5.2519    
  5.5654      6.1014      6.1578      7.4192      9.2738      11.969      15.914      21.752      30.393      43.054    
  62.725      93.327      137.16      193.71      259.29      327.73      391.62      443.67      477.84      490.17    
  479.32      446.66      396.08      333.37      265.56      199.86      142.49      97.385      65.437      44.679    
  31.354      22.264      16.115      11.971      9.1583      7.2396      5.9470      5.1074      4.5954      4.3126    
  4.1833      4.1535      4.1865      4.2561      4.3420      4.4269      4.4958      4.5381      4.5484      4.5275    
  4.4824      4.4263      4.3774      4.3581      4.3971      4.5329      4.8196      5.3301      5.5159      6.7245    
  8.5057      11.099      14.899      20.529      28.882      41.134      60.155      89.854      132.59      187.95    
  252.34      319.67      382.56      433.76      467.30      479.32      468.58      436.54      387.05      325.84    
  259.76      195.82      140.02      96.152      65.041      44.742      31.592      22.566      16.435      12.285    
  9.4515      7.5071      6.1857      5.3144      4.7665      4.4425      4.2661      4.1833      4.1575      4.1638    
  4.1835      4.2015      4.2059      4.1887      4.1473      4.0840      4.0061      3.9259      3.8594      3.8265    
  3.8528      3.9743      4.2421      4.7260      4.9431      6.0721      7.7374      10.159      13.700      18.934    
  26.689      38.025      55.371      82.459      121.72      172.97      233.03      296.18      355.40      403.70    
  435.34      446.66      436.54      406.41      360.03      302.85      241.37      182.16      130.74      90.482    
  61.977      43.259      30.876      22.285      16.411      12.403      9.6469      7.7419      6.4374      5.5669    
  5.0058      4.6560      4.4425      4.3126      4.2315      4.1763      4.1306      4.0818      4.0210      3.9434    
  3.8490      3.7418      3.6299      3.5246      3.4402      3.3939      3.4078      3.5139      3.7587      4.2072    
  4.4148      5.4429      6.9610      9.1626      12.363      17.062      23.990      34.065      49.042      72.245    
  106.13      150.88      203.92      260.23      313.42      357.04      385.73      396.08      387.05      360.03    
  318.49      267.53      213.07      161.05      116.25      81.446      56.865      40.524      29.345      21.501    
  16.092      12.365      9.7794      7.9810      6.7434      5.9107      5.3633      5.0058      4.7665      4.5954    
  4.4607      4.3424      4.2273      4.1062      3.9736      3.8285      3.6739      3.5157      3.3626      3.2255    
  3.1170      3.0513      3.0469      3.1311      3.3454      3.7478      3.9312      4.8435      6.1936      8.1445    
  10.956      15.042      21.009      29.636      42.013      60.708      88.110      124.79      168.91      216.39    
  261.75      299.29      324.20      333.37      325.84      302.85      267.53      224.41      178.74      135.57    
  98.835      70.551      50.567      36.934      27.226      20.356      15.569      12.237      9.9086      8.2842    
  7.1670      6.4137      5.9107      5.5669      5.3144      5.1074      4.9179      4.7300      4.5347      4.3276    
  4.1080      3.8796      3.6491      3.4251      3.2172      3.0360      2.8924      2.7978      2.7667      2.8215    
  2.9971      3.3444      3.4971      4.2846      5.4559      7.1433      9.5511      13.001      17.970      25.084    
  35.044      49.336      70.088      98.176      132.53      170.13      206.59      237.17      257.73      265.56    
  259.76      241.37      213.07      178.74      142.75      109.15      80.922      59.340      43.920      32.882    
  24.795      19.024      14.963      12.114      10.118      8.7351      7.7949      7.1670      6.7434      6.4374    
  6.1857      5.9470      5.6978      5.4275      5.1332      4.8167      4.4842      4.1458      3.8134      3.4988    
  3.2137      2.9686      2.7731      2.6358      2.5671      2.5835      2.7131      2.9982      3.1177      3.7767    
  4.7668      6.1921      8.2063      11.047      15.065      20.733      28.579      39.212      54.043      74.107    
  99.004      126.75      154.14      177.50      193.50      199.86      195.82      182.16      161.05      135.57    
  109.15      84.804      64.541      49.001      37.491      28.776      22.328      17.691      14.407      12.105    
  10.512      9.4374      8.7351      8.2842      7.9810      7.7419      7.5071      7.2396      6.9212      6.5479    
  6.1248      5.6634      5.1793      4.6912      4.2180      3.7765      3.3811      3.0433      2.7716      2.5720    
  2.4505      2.4178      2.4936      2.7110      2.7992      3.3303      4.1431      5.3181      6.9668      9.2554    
  12.429      16.817      22.804      30.737      41.037      54.541      71.328      90.311      109.40      125.98    
  137.60      142.49      140.02      130.74      116.25      98.835      80.922      64.541      50.880      40.094    
  31.564      24.964      20.061      16.526      14.037      12.330      11.206      10.512      10.118      9.9086    
  9.7794      9.6469      9.4515      9.1583      8.7545      8.2448      7.6466      6.9856      6.2919      5.5964    
  4.9275      4.3088      3.7581      3.2884      2.9075      2.6191      2.4247      2.3285      2.3416      2.4864    
  2.5466      2.9537      3.5984      4.5417      5.8630      7.6740      10.135      13.462      17.911      23.724    
  31.036      39.944      50.665      62.770      75.090      85.994      93.834      97.385      96.152      90.482    
  81.446      70.551      59.340      49.001      40.094      32.569      26.435      21.688      18.171      15.671    
  13.977      12.912      12.330      12.105      12.114      12.237      12.365      12.403      12.285      11.971    
  11.455      10.754      9.9037      8.9544      7.9591      6.9681      6.0234      5.1572      4.3911      3.7388    
  3.2065      2.7951      2.5016      2.3232      2.2617      2.3283      2.3629      2.6520      3.1416      3.8764    
  4.9124      6.3227      8.2066      10.696      13.946      18.109      23.273      29.400      36.296      43.762    
  51.290      58.016      62.984      65.437      65.041      61.977      56.865      50.567      43.920      37.491    
  31.564      26.435      22.268      19.073      16.769      15.232      14.339      13.977      14.037      14.407    
  14.963      15.569      16.092      16.411      16.435      16.115      15.443      14.457      13.226      11.839    
  10.390      8.9614      7.6170      6.4000      5.3353      4.4340      3.6976      3.1212      2.6957      2.4110    
  2.2591      2.2396      2.2504      2.4284      2.7782      3.3301      4.1226      5.2031      6.6309      8.4802    
  10.837      13.784      17.369      21.563      26.228      31.094      35.787      39.908      43.004      44.679    
  44.742      43.259      40.524      36.934      32.882      28.776      24.964      21.688      19.073      17.156    
  15.912      15.290      15.232      15.671      16.526      17.691      19.024      20.356      21.501      22.285    
  22.566      22.264      21.370      19.950      18.128      16.061      13.909      11.812      9.8704      8.1442    
  6.6596      5.4188      4.4107      3.6183      3.0220      2.6018      2.3399      2.2238      2.2124      2.2856    
  2.5112      2.9058      3.4942      4.3064      5.3773      6.7460      8.4543      10.539      13.018      15.864    
  18.988      22.227      25.347      28.075      30.147      31.354      31.592      30.876      29.345      27.226    
  24.795      22.328      20.061      18.171      16.769      15.912      15.624      15.912      16.769      18.171    
  20.061      22.328      24.795      27.226      29.345      30.876      31.592      31.354      30.147      28.075    
  25.347      22.227      18.988      15.864      13.018      10.539      8.4543      6.7460      5.3773      4.3064    
  3.4942      2.9058      2.5112      2.2856      2.2504      2.2238      2.3399      2.6018      3.0220      3.6183    
  4.4107      5.4188      6.6596      8.1442      9.8704      11.812      13.909      16.061      18.128      19.950    
  21.370      22.264      22.566      22.285      21.501      20.356      19.024      17.691      16.526      15.671    
  15.232      15.290      15.912      17.156      19.073      21.688      24.964      28.776      32.882      36.934    
  40.524      43.259      44.742      44.679      43.004      39.908      35.787      31.094      26.228      21.563    
  17.369      13.784      10.837      8.4802      6.6309      5.2031      4.1226      3.3301      2.7782      2.4284    
  2.3629      2.2396      2.2591      2.4110      2.6957      3.1212      3.6976      4.4340      5.3353      6.4000    
  7.6170      8.9614      10.390      11.839      13.226      14.457      15.443      16.115      16.435      16.411    
  16.092      15.569      14.963      14.407      14.037      13.977      14.339      15.232      16.769      19.073    
  22.268      26.435      31.564      37.491      43.920      50.567      56.865      61.977      65.041      65.437    
  62.984      58.016      51.290      43.762      36.296      29.400      23.273      18.109      13.946      10.696    
  8.2066      6.3227      4.9124      3.8764      3.1416      2.6520      2.5466      2.3283      2.2617      2.3232    
  2.5016      2.7951      3.2065      3.7388      4.3911      5.1572      6.0234      6.9681      7.9591      8.9544    
  9.9037      10.754      11.455      11.971      12.285      12.403      12.365      12.237      12.114      12.105    
  12.330      12.912      13.977      15.671      18.171      21.688      26.435      32.569      40.094      49.001    
  59.340      70.551      81.446      90.482      96.152      97.385      93.834      85.994      75.090      62.770    
  50.665      39.944      31.036      23.724      17.911      13.462      10.135      7.6740      5.8630      4.5417    
  3.5984      2.9537      2.7992      2.4864      2.3416      2.3285      2.4247      2.6191      2.9075      3.2884    
  3.7581      4.3088      4.9275      5.5964      6.2919      6.9856      7.6466      8.2448      8.7545      9.1583    
  9.4515      9.6469      9.7794      9.9086      10.118      10.512      11.206      12.330      14.037      16.526    
  20.061      24.964      31.564      40.094      50.880      64.541      80.922      98.835      116.25      130.74    
  140.02      142.49      137.60      125.98      109.40      90.311      71.328      54.541      41.037      30.737    
  22.804      16.817      12.429      9.2554      6.9668      5.3181      4.1431      3.3303      3.1177      2.7110    
  2.4936      2.4178      2.4505      2.5720      2.7716      3.0433      3.3811      3.7765      4.2180      4.6912    
  5.1793      5.6634      6.1248      6.5479      6.9212      7.2396      7.5071      7.7419      7.9810      8.2842    
  8.7351      9.4374      10.512      12.105      14.407      17.691      22.328      28.776      37.491      49.001    
  64.541      84.804      109.15      135.57      161.05      182.16      195.82      199.86      193.50      177.50    
  154.14      126.75      99.004      74.107      54.043      39.212      28.579      20.733      15.065      11.047    
  8.2063      6.1921      4.7668      3.7767      3.4971      2.9982      2.7131      2.5835      2.5671      2.6358    
  2.7731      2.9686      3.2137      3.4988      3.8134      4.1458      4.4842      4.8167      5.1332      5.4275    
  5.6978      5.9470      6.1857      6.4374      6.7434      7.1670      7.7949      8.7351      10.118      12.114    
  14.963      19.024      24.795      32.882      43.920      59.340      80.922      109.15      142.75      178.74    
  213.07      241.37      259.76      265.56      257.73      237.17      206.59      170.13      132.53      98.176    
  70.088      49.336      35.044      25.084      17.970      13.001      9.5511      7.1433      5.4559      4.2846    
  3.9312      3.3444      2.9971      2.8215      2.7667      2.7978      2.8924      3.0360      3.2172      3.4251    
  3.6491      3.8796      4.1080      4.3276      4.5347      4.7300      4.9179      5.1074      5.3144      5.5669    
  5.9107      6.4137      7.1670      8.2842      9.9086      12.237      15.569      20.356      27.226      36.934    
  50.567      70.551      98.835      135.57      178.74      224.41      267.53      302.85      325.84      333.37    
  324.20      299.29      261.75      216.39      168.91      124.79      88.110      60.708      42.013      29.636    
  21.009      15.042      10.956      8.1445      6.1936      4.8435      4.4148      3.7478      3.3454      3.1311    
  3.0469      3.0513      3.1170      3.2255      3.3626      3.5157      3.6739      3.8285      3.9736      4.1062    
  4.2273      4.3424      4.4607      4.5954      4.7665      5.0058      5.3633      5.9107      6.7434      7.9810    
  9.7794      12.365      16.092      21.501      29.345      40.524      56.865      81.446      116.25      161.05    
  213.07      267.53      318.49      360.03      387.05      396.08      385.73      357.04      313.42      260.23    
  203.92      150.88      106.13      72.245      49.042      34.065      23.990      17.062      12.363      9.1626    
  6.9610      5.4429      4.9431      4.2072      3.7587      3.5139      3.4078      3.3939      3.4402      3.5246    
  3.6299      3.7418      3.8490      3.9434      4.0210      4.0818      4.1306      4.1763      4.2315      4.3126    
  4.4425      4.6560      5.0058      5.5669      6.4374      7.7419      9.6469      12.403      16.411      22.285    
  30.876      43.259      61.977      90.482      130.74      182.16      241.37      302.85      360.03      406.41    
  436.54      446.66      435.34      403.70      355.40      296.18      233.03      172.97      121.72      82.459    
  55.371      38.025      26.689      18.934      13.700      10.159      7.7374      6.0721      5.5159      4.7260    
  4.2421      3.9743      3.8528      3.8265      3.8594      3.9259      4.0061      4.0840      4.1473      4.1887    
  4.2059      4.2015      4.1835      4.1638      4.1575      4.1833      4.2661      4.4425      4.7665      5.3144    
  6.1857      7.5071      9.4515      12.285      16.435      22.566      31.592      44.742      65.041      96.152    
  140.02      195.82      259.76      325.84      387.05      436.54      468.58      479.32      467.30      433.76    
  382.56      319.67      252.34      187.95      132.59      89.854      60.155      41.134      28.882      20.529    
  14.899      11.099      8.5057      6.7245      6.1578      5.3301      4.8196      4.5329      4.3971      4.3581    
  4.3774      4.4263      4.4824      4.5275      4.5484      4.5381      4.4958      4.4269      4.3420      4.2561    
  4.1865      4.1535      4.1833      4.3126      4.5954      5.1074      5.9470      7.2396      9.1583      11.971    
  16.115      22.264      31.354      44.679      65.437      97.385      142.49      199.86      265.56      333.37    
  396.08      446.66      479.32      490.17      477.84      443.67      391.62      327.73      259.29      193.71    
  137.16      93.327      62.725      43.054      30.393      21.752      15.914      11.969      9.2738      7.4192    
  6.9527      6.1014      5.5654      5.2519      5.0885      5.0217      5.0128      5.0321      5.0548      5.0607    
  5.0349      4.9698      4.8654      4.7292      4.5745      4.4189      4.2823      4.1865      4.1575      4.2315    
  4.4607      4.9179      5.6978      6.9212      8.7545      11.455      15.443      21.370      30.147      43.004    
  62.984      93.834      137.60      193.50      257.73      324.20      385.73      435.34      467.30      477.84    
  465.70      432.29      381.58      319.47      253.08      189.56      134.85      92.448      62.799      43.633    
  31.154      22.583      16.768      12.821      10.111      8.2362      8.0887      7.2204      6.6440      6.2723    
  6.0400      5.9008      5.8211      5.7735      5.7336      5.6791      5.5925      5.4636      5.2916      5.0838    
  4.8554      4.6264      4.4189      4.2561      4.1638      4.1763      4.3424      4.7300      5.4275      6.5479    
  8.2448      10.754      14.457      19.950      28.075      39.908      58.016      85.994      125.98      177.50    
  237.17      299.29      357.04      403.70      433.76      443.67      432.29      401.07      353.80      296.14    
  234.76      176.32      126.23      87.576      60.576      42.976      31.251      23.131      17.592      13.808    
  11.190      9.3611      9.9081      9.0169      8.3579      7.8580      7.4693      7.1634      6.9216      6.7269    
  6.5592      6.3958      6.2153      6.0026      5.7516      5.4664      5.1607      4.8554      4.5745      4.3420    
  4.1835      4.1306      4.2273      4.5347      5.1332      6.1248      7.6466      9.9037      13.226      18.128    
  25.347      35.787      51.290      75.090      109.40      154.14      206.59      261.75      313.42      355.40    
  382.56      391.62      381.58      353.80      311.84      260.89      206.99      156.10      112.87      79.764    
  56.693      41.439      30.952      23.656      18.662      15.232      12.837      11.134      12.958      12.021    
  11.198      10.442      9.7395      9.0971      8.5278      8.0379      7.6202      7.2550      6.9161      6.5789    
  6.2265      5.8533      5.4664      5.0838      4.7292      4.4269      4.2015      4.0818      4.1062      4.3276    
  4.8167      5.6634      6.9856      8.9544      11.839      16.061      22.227      31.094      43.762      62.770    