       N       E                     dE             d eps       ncg     rms          rms(c)
DAV:   1     0.635899785651E+03    0.63590E+03   -0.24460E+04  2240   0.200E+03
DAV:   2    -0.413466017980E+01   -0.64003E+03   -0.61996E+03  2548   0.600E+02
DAV:   3    -0.672429289609E+02   -0.63108E+02   -0.62804E+02  3188   0.193E+02
DAV:   4    -0.710275906082E+02   -0.37847E+01   -0.37820E+01  3172   0.416E+01
DAV:   5    -0.711720862806E+02   -0.14450E+00   -0.14448E+00  2924   0.641E+00    0.343E+01
DAV:   6    -0.540861723646E+02    0.17086E+02   -0.11919E+02  2652   0.113E+02    0.405E+01
DAV:   7    -0.536325674542E+02    0.45360E+00   -0.13934E+01  2840   0.333E+01    0.260E+01
DAV:   8    -0.552800121226E+02   -0.16474E+01   -0.11913E+01  2624   0.312E+01    0.151E+01
DAV:   9    -0.536514455068E+02    0.16286E+01   -0.14645E+01  2560   0.330E+01    0.266E+00
DAV:  10    -0.536103292866E+02    0.41116E-01   -0.47420E-01  3048   0.613E+00    0.216E+00
DAV:  11    -0.536139608838E+02   -0.36316E-02   -0.39375E-02  2868   0.129E+00    0.334E-01
DAV:  12    -0.536137750470E+02    0.18584E-03   -0.41709E-03  3164   0.540E-01    0.116E-01
DAV:  13    -0.536138019004E+02   -0.26853E-04   -0.31176E-04  2928   0.154E-01    0.301E-02
DAV:  14    -0.536138028091E+02   -0.90874E-06   -0.41933E-05  2268   0.572E-02
   1 F= -.53613803E+02 E0= -.53613803E+02  d E =-.536138E+02
       N       E                     dE             d eps       ncg     rms          rms(c)
DAV:   1    -0.536141441123E+02   -0.34221E-03   -0.36352E-01  2436   0.424E+00    0.469E-01
DAV:   2    -0.536150775253E+02   -0.93341E-03   -0.10687E-02  2548   0.799E-01    0.138E-01
DAV:   3    -0.536149792493E+02    0.98276E-04   -0.30883E-04  2768   0.137E-01    0.856E-02
DAV:   4    -0.536149202404E+02    0.59009E-04   -0.21231E-04  2420   0.135E-01    0.307E-02
DAV:   5    -0.536149220918E+02   -0.18514E-05   -0.48473E-05  2064   0.594E-02
   2 F= -.53614922E+02 E0= -.53614922E+02  d E =-.111928E-02
