<?xml version="1.0" encoding="ISO-8859-1"?>
<modeling>
 <generator>
  <i name="program" type="string">vasp </i>
  <i name="version" type="string">6.2.0  </i>
  <i name="subversion" type="string">18Jan21 (build Oct 14 2021 17:49:53) complex                          parallel </i>
  <i name="platform" type="string">LinuxIFC </i>
  <i name="date" type="string">2022 04 02 </i>
  <i name="time" type="string">12:21:36 </i>
 </generator>
 <incar>
  <i type="string" name="SYSTEM">TiO2</i>
  <i type="int" name="ISTART">     0</i>
  <i type="int" name="IBRION">     1</i>
  <i name="EDIFF">      0.00001000</i>
  <i name="EDIFFG">     -0.01000000</i>
  <i type="int" name="NSW">    15</i>
  <i type="int" name="ISIF">     0</i>
  <i name="ENCUT">    500.00000000</i>
  <i type="int" name="ISMEAR">     0</i>
  <i name="SIGMA">      0.01000000</i>
 </incar>
 <primitive_cell>
  <structure name="primitive_cell" >
   <crystal>
    <varray name="basis" >
     <v>       4.58400000       0.00000000       0.00000000 </v>
     <v>       0.00000000       4.58400000       0.00000000 </v>
     <v>       0.00000000       0.00000000       2.95300000 </v>
    </varray>
    <i name="volume">     62.05155437 </i>
    <varray name="rec_basis" >
     <v>       0.21815009       0.00000000       0.00000000 </v>
     <v>       0.00000000       0.21815009       0.00000000 </v>
     <v>       0.00000000       0.00000000       0.33863867 </v>
    </varray>
   </crystal>
   <varray name="positions" >
    <v>       0.00000000       0.00000000       0.00000000 </v>
    <v>       0.50000000       0.50000000       0.50000000 </v>
    <v>       0.19542000       0.80458000       0.50000000 </v>
    <v>       0.80458000       0.19542000       0.50000000 </v>
    <v>       0.30458000       0.30458000       0.00000000 </v>
    <v>       0.69542000       0.69542000       0.00000000 </v>
   </varray>
  </structure>
  <varray name="primitive_index" >
   <v type="int" >        1 </v>
   <v type="int" >        2 </v>
   <v type="int" >        3 </v>
   <v type="int" >        4 </v>
   <v type="int" >        5 </v>
   <v type="int" >        6 </v>
  </varray>
 </primitive_cell>
 <kpoints>
  <generation param="Gamma">
   <v type="int" name="divisions">       6        6        6 </v>
   <v name="usershift">      0.00000000       0.00000000       0.00000000 </v>
   <v name="genvec1">      0.16666667       0.00000000       0.00000000 </v>
   <v name="genvec2">      0.00000000       0.16666667       0.00000000 </v>
   <v name="genvec3">      0.00000000       0.00000000       0.16666667 </v>
   <v name="shift">      0.00000000       0.00000000       0.00000000 </v>
  </generation>
  <varray name="kpointlist" >
   <v>       0.00000000       0.00000000       0.00000000 </v>
   <v>       0.16666667       0.00000000       0.00000000 </v>
   <v>       0.33333333       0.00000000       0.00000000 </v>
   <v>       0.50000000       0.00000000       0.00000000 </v>
   <v>       0.16666667       0.16666667       0.00000000 </v>
   <v>       0.33333333       0.16666667       0.00000000 </v>
   <v>       0.50000000       0.16666667       0.00000000 </v>
   <v>       0.33333333       0.33333333       0.00000000 </v>
   <v>       0.50000000       0.33333333       0.00000000 </v>
   <v>       0.50000000       0.50000000       0.00000000 </v>
   <v>       0.00000000       0.00000000       0.16666667 </v>
   <v>       0.16666667       0.00000000       0.16666667 </v>
   <v>       0.33333333       0.00000000       0.16666667 </v>
   <v>       0.50000000       0.00000000       0.16666667 </v>
   <v>       0.16666667       0.16666667       0.16666667 </v>
   <v>       0.33333333       0.16666667       0.16666667 </v>
   <v>       0.50000000       0.16666667       0.16666667 </v>
   <v>       0.33333333       0.33333333       0.16666667 </v>
   <v>       0.50000000       0.33333333       0.16666667 </v>
   <v>       0.50000000       0.50000000       0.16666667 </v>
   <v>       0.00000000       0.00000000       0.33333333 </v>
   <v>       0.16666667       0.00000000       0.33333333 </v>
   <v>       0.33333333       0.00000000       0.33333333 </v>
   <v>       0.50000000       0.00000000       0.33333333 </v>
   <v>       0.16666667       0.16666667       0.33333333 </v>
   <v>       0.33333333       0.16666667       0.33333333 </v>
   <v>       0.50000000       0.16666667       0.33333333 </v>
   <v>       0.33333333       0.33333333       0.33333333 </v>
   <v>       0.50000000       0.33333333       0.33333333 </v>
   <v>       0.50000000       0.50000000       0.33333333 </v>
   <v>       0.00000000       0.00000000       0.50000000 </v>
   <v>       0.16666667       0.00000000       0.50000000 </v>
   <v>       0.33333333       0.00000000       0.50000000 </v>
   <v>       0.50000000       0.00000000       0.50000000 </v>
   <v>       0.16666667       0.16666667       0.50000000 </v>
   <v>       0.33333333       0.16666667       0.50000000 </v>
   <v>       0.50000000       0.16666667       0.50000000 </v>
   <v>       0.33333333       0.33333333       0.50000000 </v>
   <v>       0.50000000       0.33333333       0.50000000 </v>
   <v>       0.50000000       0.50000000       0.50000000 </v>
  </varray>
  <varray name="weights" >
   <v>       0.00462963 </v>
   <v>       0.01851852 </v>
   <v>       0.01851852 </v>
   <v>       0.00925926 </v>
   <v>       0.01851852 </v>
   <v>       0.03703704 </v>
   <v>       0.01851852 </v>
   <v>       0.01851852 </v>
   <v>       0.01851852 </v>
   <v>       0.00462963 </v>
   <v>       0.00925926 </v>
   <v>       0.03703704 </v>
   <v>       0.03703704 </v>
   <v>       0.01851852 </v>
   <v>       0.03703704 </v>
   <v>       0.07407407 </v>
   <v>       0.03703704 </v>
   <v>       0.03703704 </v>
   <v>       0.03703704 </v>
   <v>       0.00925926 </v>
   <v>       0.00925926 </v>
   <v>       0.03703704 </v>
   <v>       0.03703704 </v>
   <v>       0.01851852 </v>
   <v>       0.03703704 </v>
   <v>       0.07407407 </v>
   <v>       0.03703704 </v>
   <v>       0.03703704 </v>
   <v>       0.03703704 </v>
   <v>       0.00925926 </v>
   <v>       0.00462963 </v>
   <v>       0.01851852 </v>
   <v>       0.01851852 </v>
   <v>       0.00925926 </v>
   <v>       0.01851852 </v>
   <v>       0.03703704 </v>
   <v>       0.01851852 </v>
   <v>       0.01851852 </v>
   <v>       0.01851852 </v>
   <v>       0.00462963 </v>
  </varray>
 </kpoints>
 <parameters>
  <separator name="general" >
   <i type="string" name="SYSTEM">TiO2</i>
   <i type="logical" name="LCOMPAT"> F  </i>
  </separator>
  <separator name="electronic" >
   <i type="string" name="PREC">normal</i>
   <i name="ENMAX">    500.00000000</i>
   <i name="ENAUG">    482.84800000</i>
   <i name="EDIFF">      0.00001000</i>
   <i type="int" name="IALGO">    38</i>
   <i type="int" name="IWAVPR">    11</i>
   <i type="int" name="NBANDS">    28</i>
   <i type="int" name="NBANDSLOW">    -1</i>
   <i type="int" name="NBANDSHIGH">    -1</i>
   <i name="NELECT">     48.00000000</i>
   <i type="int" name="TURBO">     0</i>
   <i type="int" name="IRESTART">     0</i>
   <i type="int" name="NREBOOT">     0</i>
   <i type="int" name="NMIN">     0</i>
   <i name="EREF">      0.00000000</i>
   <separator name="electronic smearing" >
    <i type="int" name="ISMEAR">     0</i>
    <i name="SIGMA">      0.01000000</i>
    <i name="KSPACING">      0.50000000</i>
    <i type="logical" name="KGAMMA"> T  </i>
    <i type="logical" name="KBLOWUP"> T  </i>
   </separator>
   <separator name="electronic projectors" >
    <i type="logical" name="LREAL"> F  </i>
    <v name="ROPT">      0.00000000      0.00000000</v>
    <i type="int" name="LMAXPAW">  -100</i>
    <i type="int" name="LMAXMIX">     2</i>
    <i type="logical" name="NLSPLINE"> F  </i>
   </separator>
   <separator name="electronic startup" >
    <i type="int" name="ISTART">     0</i>
    <i type="int" name="ICHARG">     2</i>
    <i type="int" name="INIWAV">     1</i>
   </separator>
   <separator name="electronic spin" >
    <i type="int" name="ISPIN">     1</i>
    <i type="logical" name="LNONCOLLINEAR"> F  </i>
    <v name="MAGMOM">      1.00000000      1.00000000      1.00000000      1.00000000      1.00000000      1.00000000</v>
    <i name="NUPDOWN">     -1.00000000</i>
    <i type="logical" name="LSORBIT"> F  </i>
    <v name="SAXIS">      0.00000000      0.00000000      1.00000000</v>
    <i type="logical" name="LSPIRAL"> F  </i>
    <v name="QSPIRAL">      0.00000000      0.00000000      0.00000000</v>
    <i type="logical" name="LZEROZ"> F  </i>
   </separator>
   <separator name="electronic exchange-correlation" >
    <i type="logical" name="LASPH"> F  </i>
    <i type="logical" name="LMETAGGA"> F  </i>
   </separator>
   <separator name="electronic convergence" >
    <i type="int" name="NELM">    60</i>
    <i type="int" name="NELMDL">    -5</i>
    <i type="int" name="NELMIN">     2</i>
    <i name="ENINI">    500.00000000</i>
    <separator name="electronic convergence detail" >
     <i type="logical" name="LDIAG"> T  </i>
     <i type="logical" name="LSUBROT"> F  </i>
     <i name="WEIMIN">      0.00100000</i>
     <i name="EBREAK">      0.00000009</i>
     <i name="DEPER">      0.30000000</i>
     <i type="int" name="NRMM">     4</i>
     <i name="TIME">      0.40000000</i>
    </separator>
   </separator>
   <separator name="electronic mixer" >
    <i name="AMIX">      0.40000000</i>
    <i name="BMIX">      1.00000000</i>
    <i name="AMIN">      0.10000000</i>
    <i name="AMIX_MAG">      1.60000000</i>
    <i name="BMIX_MAG">      1.00000000</i>
    <separator name="electronic mixer details" >
     <i type="int" name="IMIX">     4</i>
     <i type="logical" name="MIXFIRST"> F  </i>
     <i type="int" name="MAXMIX">   -45</i>
     <i name="WC">    100.00000000</i>
     <i type="int" name="INIMIX">     1</i>
     <i type="int" name="MIXPRE">     1</i>
     <i type="int" name="MREMOVE">     5</i>
    </separator>
   </separator>
   <separator name="electronic dipolcorrection" >
    <i type="logical" name="LDIPOL"> F  </i>
    <i type="logical" name="LMONO"> F  </i>
    <i type="int" name="IDIPOL">     0</i>
    <i name="EPSILON">      1.00000000</i>
    <v name="DIPOL">   -100.00000000   -100.00000000   -100.00000000</v>
    <i name="EFIELD">      0.00000000</i>
   </separator>
  </separator>
  <separator name="grids" >
   <i type="int" name="NGX">    28</i>
   <i type="int" name="NGY">    28</i>
   <i type="int" name="NGZ">    16</i>
   <i type="int" name="NGXF">    56</i>
   <i type="int" name="NGYF">    56</i>
   <i type="int" name="NGZF">    32</i>
   <i type="logical" name="ADDGRID"> F  </i>
  </separator>
  <separator name="ionic" >
   <i type="int" name="NSW">    15</i>
   <i type="int" name="IBRION">     1</i>
   <i type="int" name="MDALGO">     0</i>
   <i type="int" name="ISIF">     0</i>
   <i name="PSTRESS">      0.00000000</i>
   <i name="EDIFFG">     -0.01000000</i>
   <i type="int" name="NFREE">     0</i>
   <i name="POTIM">      0.50000000</i>
   <i name="SMASS">     -3.00000000</i>
   <i name="SCALEE">      1.00000000</i>
  </separator>
  <separator name="ionic md" >
   <i name="TEBEG">      0.00010000</i>
   <i name="TEEND">      0.00010000</i>
   <i type="int" name="NBLOCK">     1</i>
   <i type="int" name="KBLOCK">    15</i>
   <i type="int" name="NPACO">   256</i>
   <i name="APACO">     16.00000000</i>
  </separator>
  <separator name="symmetry" >
   <i type="int" name="ISYM">     2</i>
   <i name="SYMPREC">      0.00001000</i>
  </separator>
  <separator name="dos" >
   <i type="int" name="LORBIT">     0</i>
   <v name="RWIGS">     -1.00000000     -1.00000000</v>
   <i type="int" name="NEDOS">   301</i>
   <i name="EMIN">     10.00000000</i>
   <i name="EMAX">    -10.00000000</i>
   <i name="EFERMI">      0.00000000</i>
  </separator>
  <separator name="writing" >
   <i type="int" name="NWRITE">     2</i>
   <i type="logical" name="LWAVE"> T  </i>
   <i type="logical" name="LDOWNSAMPLE"> F  </i>
   <i type="logical" name="LCHARG"> T  </i>
   <i type="logical" name="LPARD"> F  </i>
   <i type="logical" name="LVTOT"> F  </i>
   <i type="logical" name="LVHAR"> F  </i>
   <i type="logical" name="LELF"> F  </i>
   <i type="logical" name="LOPTICS"> F  </i>
   <v name="STM">      0.00000000      0.00000000      0.00000000      0.00000000      0.00000000      0.00000000      0.00000000</v>
  </separator>
  <separator name="performance" >
   <i type="int" name="NPAR">     1</i>
   <i type="int" name="NSIM">     4</i>
   <i type="int" name="NBLK">    -1</i>
   <i type="logical" name="LPLANE"> T  </i>
   <i type="logical" name="LSCALAPACK"> T  </i>
   <i type="logical" name="LSCAAWARE"> F  </i>
   <i type="logical" name="LSCALU"> F  </i>
   <i type="logical" name="LASYNC"> F  </i>
   <i type="logical" name="LORBITALREAL"> F  </i>
  </separator>
  <separator name="miscellaneous" >
   <i type="int" name="IDIOT">     3</i>
   <i type="int" name="PHON_NSTRUCT">    -1</i>
   <i type="logical" name="LMUSIC"> F  </i>
   <v name="POMASS">     47.88000000     16.00000000</v>
   <v name="DARWINR">      0.00000000      0.00000000</v>
   <v name="DARWINV">      1.00000000      1.00000000</v>
   <i type="logical" name="LCORR"> T  </i>
  </separator>
  <i type="logical" name="GGA_COMPAT"> T  </i>
  <i type="logical" name="LBERRY"> F  </i>
  <i type="int" name="ICORELEVEL">     0</i>
  <i type="logical" name="LDAU"> F  </i>
  <i type="int" name="I_CONSTRAINED_M">     0</i>
  <separator name="electronic exchange-correlation" >
   <i type="string" name="GGA">--</i>
   <i type="int" name="VOSKOWN">     0</i>
   <i type="logical" name="LHFCALC"> F  </i>
   <i type="string" name="PRECFOCK"></i>
   <i type="logical" name="LSYMGRAD"> F  </i>
   <i type="logical" name="LHFONE"> F  </i>
   <i type="logical" name="LRHFCALC"> F  </i>
   <i type="logical" name="LTHOMAS"> F  </i>
   <i type="logical" name="LMODELHF"> F  </i>
   <i type="logical" name="LFOCKACE"> F  </i>
   <i name="ENCUT4O">     -1.00000000</i>
   <i type="int" name="EXXOEP">     0</i>
   <i type="int" name="FOURORBIT">     0</i>
   <i name="AEXX">      0.00000000</i>
   <i name="HFALPHA">      0.00000000</i>
   <i name="MCALPHA">      0.00000000</i>
   <i name="ALDAX">      1.00000000</i>
   <i name="AGGAX">      1.00000000</i>
   <i name="ALDAC">      1.00000000</i>
   <i name="AGGAC">      1.00000000</i>
   <i type="int" name="NKREDX">     1</i>
   <i type="int" name="NKREDY">     1</i>
   <i type="int" name="NKREDZ">     1</i>
   <i type="logical" name="SHIFTRED"> F  </i>
   <i type="logical" name="ODDONLY"> F  </i>
   <i type="logical" name="EVENONLY"> F  </i>
   <i type="int" name="LMAXFOCK">     0</i>
   <i type="int" name="NMAXFOCKAE">     0</i>
   <i type="logical" name="LFOCKAEDFT"> F  </i>
   <i name="HFSCREEN">      0.00000000</i>
   <i name="HFSCREENC">      0.00000000</i>
   <i type="int" name="NBANDSGWLOW">     0</i>
  </separator>
  <separator name="vdW DFT" >
   <i type="logical" name="LUSE_VDW"> F  </i>
   <i name="Zab_VDW">     -0.84910000</i>
   <i name="PARAM1">      0.12340000</i>
   <i name="PARAM2">      1.00000000</i>
   <i name="PARAM3">      0.00000000</i>
  </separator>
  <separator name="model GW" >
   <i type="int" name="MODEL_GW">     0</i>
   <i name="MODEL_EPS0">      6.20515544</i>
   <i name="MODEL_ALPHA">      1.00000000</i>
  </separator>
  <separator name="linear response parameters" >
   <i type="logical" name="LEPSILON"> F  </i>
   <i type="logical" name="LRPA"> F  </i>
   <i type="logical" name="LNABLA"> F  </i>
   <i type="logical" name="LVEL"> F  </i>
   <i type="int" name="KINTER">     0</i>
   <i name="CSHIFT">      0.10000000</i>
   <i name="OMEGAMAX">     -1.00000000</i>
   <i name="DEG_THRESHOLD">      0.00200000</i>
   <i name="RTIME">     -0.10000000</i>
   <i name="WPLASMAI">      0.00000000</i>
   <v name="DFIELD">      0.00000000      0.00000000      0.00000000</v>
   <v name="WPLASMA">      0.00000000      0.00000000      0.00000000      0.00000000      0.00000000      0.00000000      0.00000000      0.00000000      0.00000000</v>
  </separator>
  <separator name="orbital magnetization" >
   <i type="logical" name="NUCIND"> F  </i>
   <v name="MAGPOS">      0.00000000      0.00000000      0.00000000</v>
   <i type="logical" name="LNICSALL"> T  </i>
   <i type="logical" name="ORBITALMAG"> F  </i>
   <i type="logical" name="LMAGBLOCH"> F  </i>
   <i type="logical" name="LCHIMAG"> F  </i>
   <i type="logical" name="LGAUGE"> T  </i>
   <i type="int" name="MAGATOM">     0</i>
   <v name="MAGDIPOL">      0.00000000      0.00000000      0.00000000</v>
   <v name="AVECCONST">      0.00000000      0.00000000      0.00000000</v>
  </separator>
  <separator name="response functions" >
   <i type="logical" name="LFINITE_TEMPERATURE"> F  </i>
   <i type="logical" name="LADDER"> F  </i>
   <i type="logical" name="LRPAFORCE"> F  </i>
   <i type="logical" name="LFXC"> F  </i>
   <i type="logical" name="LHARTREE"> T  </i>
   <i type="int" name="IBSE">     0</i>
   <v type="int" name="KPOINT">    -1     0     0     0</v>
   <i type="logical" name="LTCTC"> F  </i>
   <i type="logical" name="LTCTE"> F  </i>
   <i type="logical" name="LTETE"> F  </i>
   <i type="logical" name="LTRIPLET"> F  </i>
   <i type="logical" name="LFXCEPS"> F  </i>
   <i type="logical" name="LFXHEG"> F  </i>
   <i type="int" name="NATURALO">     2</i>
   <i type="logical" name="LHOLEGF"> F  </i>
   <i type="logical" name="L2ORDER"> F  </i>
   <i type="logical" name="LDMP1"> F  </i>
   <i type="logical" name="LMP2LT"> F  </i>
   <i type="logical" name="LSMP2LT"> F  </i>
   <i type="logical" name="LGWLF"> F  </i>
   <i name="ENCUTGW">     -2.00000000</i>
   <i name="ENCUTGWSOFT">     -2.00000000</i>
   <i name="ENCUTLF">     -1.00000000</i>
   <i type="logical" name="LESF_SPLINES"> F  </i>
   <i type="int" name="LMAXMP2">    -1</i>
   <i name="SCISSOR">      0.00000000</i>
   <i type="int" name="NOMEGA">     0</i>
   <i type="int" name="NOMEGAR">     0</i>
   <i type="int" name="NBANDSGW">    -1</i>
   <i type="int" name="NBANDSO">    -1</i>
   <i type="int" name="NBANDSV">    -1</i>
   <i type="int" name="NELM">     1</i>
   <i type="int" name="NELMHF">     1</i>
   <i type="int" name="DIM">     3</i>
   <i type="int" name="IESPILON">     4</i>
   <i type="int" name="ANTIRES">     0</i>
   <i name="OMEGAMAX">    -30.00000000</i>
   <i name="OMEGAMIN">    -30.00000000</i>
   <i name="OMEGATL">   -200.00000000</i>
   <i type="int" name="OMEGAGRID">     0</i>
   <i name="CSHIFT">     -0.10000000</i>
   <i type="logical" name="LSELFENERGY"> F  </i>
   <i type="logical" name="LSPECTRAL"> F  </i>
   <i type="logical" name="LSPECTRALGW"> F  </i>
   <i type="logical" name="LSINGLES"> F  </i>
   <i type="logical" name="LFERMIGW"> F  </i>
   <i type="logical" name="ODDONLYGW"> F  </i>
   <i type="logical" name="EVENONLYGW"> F  </i>
   <i type="int" name="NKREDLFX">     1</i>
   <i type="int" name="NKREDLFY">     1</i>
   <i type="int" name="NKREDLFZ">     1</i>
   <i type="int" name="MAXMEM">  2800</i>
   <i type="int" name="TELESCOPE">     0</i>
   <i type="int" name="NTAUPAR">    -1</i>
   <i type="int" name="NOMEGAPAR">    -1</i>
   <i name="DAMP_NEWTON">      0.80000001</i>
   <i name="LAMBDA">      1.00000000</i>
  </separator>
  <separator name="External order field" >
   <i name="OFIELD_KAPPA">      0.00000000</i>
   <v name="OFIELD_K">      0.00000000      0.00000000      0.00000000</v>
   <i name="OFIELD_Q6_NEAR">      0.00000000</i>
   <i name="OFIELD_Q6_FAR">      0.00000000</i>
   <i name="OFIELD_A">      0.00000000</i>
  </separator>
 </parameters>
 <atominfo>
  <atoms>       6 </atoms>
  <types>       2 </types>
  <array name="atoms" >
   <dimension dim="1">ion</dimension>
   <field type="string">element</field>
   <field type="int">atomtype</field>
   <set>
    <rc><c>Ti</c><c>   1</c></rc>
    <rc><c>Ti</c><c>   1</c></rc>
    <rc><c>O </c><c>   2</c></rc>
    <rc><c>O </c><c>   2</c></rc>
    <rc><c>O </c><c>   2</c></rc>
    <rc><c>O </c><c>   2</c></rc>
   </set>
  </array>
  <array name="atomtypes" >
   <dimension dim="1">type</dimension>
   <field type="int">atomspertype</field>
   <field type="string">element</field>
   <field>mass</field>
   <field>valence</field>
   <field type="string">pseudopotential</field>
   <set>
    <rc><c>   2</c><c>Ti</c><c>     47.88000000</c><c>     12.00000000</c><c>  PAW_PBE Ti_sv 26Sep2005               </c></rc>
    <rc><c>   4</c><c>O </c><c>     16.00000000</c><c>      6.00000000</c><c> PAW_PBE O_s 07Sep2000                  </c></rc>
   </set>
  </array>
 </atominfo>
 <structure name="initialpos" >
  <crystal>
   <varray name="basis" >
    <v>       4.58400000       0.00000000       0.00000000 </v>
    <v>       0.00000000       4.58400000       0.00000000 </v>
    <v>       0.00000000       0.00000000       2.95300000 </v>
   </varray>
   <i name="volume">     62.05155437 </i>
   <varray name="rec_basis" >
    <v>       0.21815009       0.00000000       0.00000000 </v>
    <v>       0.00000000       0.21815009       0.00000000 </v>
    <v>       0.00000000       0.00000000       0.33863867 </v>
   </varray>
  </crystal>
  <varray name="positions" >
   <v>       0.00000000       0.00000000       0.00000000 </v>
   <v>       0.50000000       0.50000000       0.50000000 </v>
   <v>       0.19542000       0.80458000       0.50000000 </v>
   <v>       0.80458000       0.19542000       0.50000000 </v>
   <v>       0.30458000       0.30458000       0.00000000 </v>
   <v>       0.69542000       0.69542000       0.00000000 </v>
  </varray>
 </structure>
 <calculation>
  <scstep>
   <time name="dav">    1.32    1.32</time>
   <time name="total">    1.36    1.37</time>
   <energy>
    <i name="alphaZ">    184.33841299 </i>
    <i name="ewald">  -3603.98661611 </i>
    <i name="hartreedc">  -1243.30134872 </i>
    <i name="XCdc">    234.93629837 </i>
    <i name="pawpsdc">   3905.77317989 </i>
    <i name="pawaedc">  -3883.35318710 </i>
    <i name="eentropy">     -0.00028074 </i>
    <i name="bandstr">    135.83505296 </i>
    <i name="atom">   4905.65827411 </i>
    <i name="e_fr_energy">    635.89978565 </i>
    <i name="e_wo_entrp">    635.90006639 </i>
    <i name="e_0_energy">    635.89992602 </i>
   </energy>
  </scstep>
  <scstep>
   <time name="dav">    1.43    1.43</time>
   <time name="total">    1.43    1.43</time>
   <energy>
    <i name="e_fr_energy">     -4.13466018 </i>
    <i name="e_wo_entrp">     -4.13466018 </i>
    <i name="e_0_energy">     -4.13466018 </i>
   </energy>
  </scstep>
  <scstep>
   <time name="dav">    1.73    1.73</time>
   <time name="total">    1.73    1.73</time>
   <energy>
    <i name="e_fr_energy">    -67.24292896 </i>
    <i name="e_wo_entrp">    -67.24292896 </i>
    <i name="e_0_energy">    -67.24292896 </i>
   </energy>
  </scstep>
  <scstep>
   <time name="dav">    1.69    1.69</time>
   <time name="total">    1.69    1.69</time>
   <energy>
    <i name="e_fr_energy">    -71.02759061 </i>
    <i name="e_wo_entrp">    -71.02759061 </i>
    <i name="e_0_energy">    -71.02759061 </i>
   </energy>
  </scstep>
  <scstep>
   <time name="dav">    1.59    1.59</time>
   <time name="total">    1.70    1.70</time>
   <energy>
    <i name="e_fr_energy">    -71.17208628 </i>
    <i name="e_wo_entrp">    -71.17208628 </i>
    <i name="e_0_energy">    -71.17208628 </i>
   </energy>
  </scstep>
  <scstep>
   <time name="dav">    1.47    1.47</time>
   <time name="total">    1.62    1.62</time>
   <energy>
    <i name="e_fr_energy">    -54.08617236 </i>
    <i name="e_wo_entrp">    -54.08617236 </i>
    <i name="e_0_energy">    -54.08617236 </i>
   </energy>
  </scstep>
  <scstep>
   <time name="dav">    1.54    1.54</time>
   <time name="total">    1.68    1.69</time>
   <energy>
    <i name="e_fr_energy">    -53.63256745 </i>
    <i name="e_wo_entrp">    -53.63256745 </i>
    <i name="e_0_energy">    -53.63256745 </i>
   </energy>
  </scstep>
  <scstep>
   <time name="dav">    1.44    1.44</time>
   <time name="total">    1.58    1.58</time>
   <energy>
    <i name="e_fr_energy">    -55.28001212 </i>
    <i name="e_wo_entrp">    -55.28001212 </i>
    <i name="e_0_energy">    -55.28001212 </i>
   </energy>
  </scstep>
  <scstep>
   <time name="dav">    1.44    1.44</time>
   <time name="total">    1.58    1.58</time>
   <energy>
    <i name="e_fr_energy">    -53.65144551 </i>
    <i name="e_wo_entrp">    -53.65144551 </i>
    <i name="e_0_energy">    -53.65144551 </i>
   </energy>
  </scstep>
  <scstep>
   <time name="dav">    1.62    1.62</time>
   <time name="total">    1.77    1.77</time>
   <energy>
    <i name="e_fr_energy">    -53.61032929 </i>
    <i name="e_wo_entrp">    -53.61032929 </i>
    <i name="e_0_energy">    -53.61032929 </i>
   </energy>
  </scstep>
  <scstep>
   <time name="dav">    1.56    1.56</time>
   <time name="total">    1.71    1.71</time>
   <energy>
    <i name="e_fr_energy">    -53.61396088 </i>
    <i name="e_wo_entrp">    -53.61396088 </i>
    <i name="e_0_energy">    -53.61396088 </i>
   </energy>
  </scstep>
  <scstep>
   <time name="dav">    1.69    1.69</time>
   <time name="total">    1.83    1.83</time>
   <energy>
    <i name="e_fr_energy">    -53.61377505 </i>
    <i name="e_wo_entrp">    -53.61377505 </i>
    <i name="e_0_energy">    -53.61377505 </i>
   </energy>
  </scstep>
  <scstep>
   <time name="dav">    1.57    1.57</time>
   <time name="total">    1.72    1.72</time>
   <energy>
    <i name="e_fr_energy">    -53.61380190 </i>
    <i name="e_wo_entrp">    -53.61380190 </i>
    <i name="e_0_energy">    -53.61380190 </i>
   </energy>
  </scstep>
  <scstep>
   <time name="dav">    1.31    1.31</time>
   <time name="total">    1.35    1.35</time>
   <energy>
    <i name="alphaZ">    184.33841299 </i>
    <i name="ewald">  -3603.98661611 </i>
    <i name="hartreedc">  -1225.66197509 </i>
    <i name="XCdc">    236.21324126 </i>
    <i name="pawpsdc">   7168.22372776 </i>
    <i name="pawaedc">  -7140.82958604 </i>
    <i name="eentropy">     -0.00000000 </i>
    <i name="bandstr">   -577.56928170 </i>
    <i name="atom">   4905.65827411 </i>
    <i name="e_fr_energy">    -53.61380281 </i>
    <i name="e_wo_entrp">    -53.61380281 </i>
    <i name="e_0_energy">    -53.61380281 </i>
   </energy>
  </scstep>
  <structure>
   <crystal>
    <varray name="basis" >
     <v>       4.58400000       0.00000000       0.00000000 </v>
     <v>       0.00000000       4.58400000       0.00000000 </v>
     <v>       0.00000000       0.00000000       2.95300000 </v>
    </varray>
    <i name="volume">     62.05155437 </i>
    <varray name="rec_basis" >
     <v>       0.21815009       0.00000000       0.00000000 </v>
     <v>       0.00000000       0.21815009       0.00000000 </v>
     <v>       0.00000000       0.00000000       0.33863867 </v>
    </varray>
   </crystal>
   <varray name="positions" >
    <v>       0.00000000       0.00000000       0.00000000 </v>
    <v>       0.50000000       0.50000000       0.50000000 </v>
    <v>       0.19542000       0.80458000       0.50000000 </v>
    <v>       0.80458000       0.19542000       0.50000000 </v>
    <v>       0.30458000       0.30458000       0.00000000 </v>
    <v>       0.69542000       0.69542000       0.00000000 </v>
   </varray>
  </structure>
  <varray name="forces" >
   <v>       0.00000000      -0.00000000       0.00000000 </v>
   <v>      -0.00000000      -0.00000000       0.00000000 </v>
   <v>       0.07761792      -0.07761792      -0.00000000 </v>
   <v>      -0.07761792       0.07761792      -0.00000000 </v>
   <v>      -0.07761792      -0.07761792      -0.00000000 </v>
   <v>       0.07761792       0.07761792      -0.00000000 </v>
  </varray>
  <energy>
   <i name="e_fr_energy">    -53.61380281 </i>
   <i name="e_wo_entrp">    -53.61380281 </i>
   <i name="e_0_energy">    -53.61380281 </i>
  </energy>
  <time name="totalsc">   23.67   23.75</time>
 </calculation>
 <calculation>
  <scstep>
   <time name="dav">    1.39    1.39</time>
   <time name="total">    1.54    1.54</time>
   <energy>
    <i name="alphaZ">    184.33841299 </i>
    <i name="ewald">  -3605.37491913 </i>
    <i name="hartreedc">  -1224.47240560 </i>
    <i name="XCdc">    236.20146323 </i>
    <i name="pawpsdc">   7167.97865779 </i>
    <i name="pawaedc">  -7140.55058924 </i>
    <i name="eentropy">     -0.00000000 </i>
    <i name="bandstr">   -577.39303826 </i>
    <i name="atom">   4905.65827411 </i>
    <i name="e_fr_energy">    -53.61414411 </i>
    <i name="e_wo_entrp">    -53.61414411 </i>
    <i name="e_0_energy">    -53.61414411 </i>
   </energy>
  </scstep>
  <scstep>
   <time name="dav">    1.42    1.42</time>
   <time name="total">    1.57    1.57</time>
   <energy>
    <i name="e_fr_energy">    -53.61507753 </i>
    <i name="e_wo_entrp">    -53.61507753 </i>
    <i name="e_0_energy">    -53.61507753 </i>
   </energy>
  </scstep>
  <scstep>
   <time name="dav">    1.52    1.52</time>
   <time name="total">    1.67    1.67</time>
   <energy>
    <i name="e_fr_energy">    -53.61497925 </i>
    <i name="e_wo_entrp">    -53.61497925 </i>
    <i name="e_0_energy">    -53.61497925 </i>
   </energy>
  </scstep>
  <scstep>
   <time name="dav">    1.39    1.39</time>
   <time name="total">    1.55    1.55</time>
   <energy>
    <i name="e_fr_energy">    -53.61492024 </i>
    <i name="e_wo_entrp">    -53.61492024 </i>
    <i name="e_0_energy">    -53.61492024 </i>
   </energy>
  </scstep>
  <scstep>
   <time name="dav">    1.22    1.23</time>
   <time name="total">    1.26    1.26</time>
   <energy>
    <i name="alphaZ">    184.33841299 </i>
    <i name="ewald">  -3605.37491913 </i>
    <i name="hartreedc">  -1224.20691108 </i>
    <i name="XCdc">    236.19300543 </i>
    <i name="pawpsdc">   7159.23990791 </i>
    <i name="pawaedc">  -7131.83396425 </i>
    <i name="eentropy">     -0.00000000 </i>
    <i name="bandstr">   -577.62872807 </i>
    <i name="atom">   4905.65827411 </i>
    <i name="e_fr_energy">    -53.61492209 </i>
    <i name="e_wo_entrp">    -53.61492209 </i>
    <i name="e_0_energy">    -53.61492209 </i>
   </energy>
  </scstep>
  <structure>
   <crystal>
    <varray name="basis" >
     <v>       4.58400000       0.00000000       0.00000000 </v>
     <v>       0.00000000       4.58400000       0.00000000 </v>
     <v>       0.00000000       0.00000000       2.95300000 </v>
    </varray>
    <i name="volume">     62.05155437 </i>
    <varray name="rec_basis" >
     <v>       0.21815009       0.00000000       0.00000000 </v>
     <v>       0.00000000       0.21815009       0.00000000 </v>
     <v>       0.00000000       0.00000000       0.33863867 </v>
    </varray>
   </crystal>
   <varray name="positions" >
    <v>       0.00000000      -0.00000000       0.00000000 </v>
    <v>       0.50000000       0.50000000       0.50000000 </v>
    <v>       0.19623686       0.80376314       0.50000000 </v>
    <v>       0.80376314       0.19623686       0.50000000 </v>
    <v>       0.30376314       0.30376314      -0.00000000 </v>
    <v>       0.69623686       0.69623686      -0.00000000 </v>
   </varray>
  </structure>
  <varray name="forces" >
   <v>       0.00000000      -0.00000000       0.00000000 </v>
   <v>      -0.00000000      -0.00000000       0.00000000 </v>
   <v>      -0.00327330       0.00327330      -0.00000000 </v>
   <v>       0.00327330      -0.00327330       0.00000000 </v>
   <v>       0.00327330       0.00327330      -0.00000000 </v>
   <v>      -0.00327330      -0.00327330       0.00000000 </v>
  </varray>
  <energy>
   <i name="e_fr_energy">    -53.61492209 </i>
   <i name="e_wo_entrp">    -53.61492209 </i>
   <i name="e_0_energy">    -53.61492209 </i>
  </energy>
  <time name="totalsc">    8.51    9.59</time>
  <eigenvalues>
   <array>
    <dimension dim="1">band</dimension>
    <dimension dim="2">kpoint</dimension>
    <dimension dim="3">spin</dimension>
    <field>eigene</field>
    <field>occ</field>
    <set>
     <set comment="spin 1">
      <set comment="kpoint 1">
       <r>  -51.6383    1.0000 </r>
       <r>  -51.6205    1.0000 </r>
       <r>  -27.9500    1.0000 </r>
       <r>  -27.9500    1.0000 </r>
       <r>  -27.7810    1.0000 </r>
       <r>  -27.7810    1.0000 </r>
       <r>  -27.7417    1.0000 </r>
       <r>  -27.7068    1.0000 </r>
       <r>  -12.9529    1.0000 </r>
       <r>  -11.7727    1.0000 </r>
       <r>  -11.0329    1.0000 </r>
       <r>  -11.0329    1.0000 </r>
       <r>   -0.5230    1.0000 </r>
       <r>   -0.1090    1.0000 </r>
       <r>    0.3144    1.0000 </r>
       <r>    1.4488    1.0000 </r>
       <r>    1.4488    1.0000 </r>
       <r>    2.7120    1.0000 </r>
       <r>    2.7120    1.0000 </r>
       <r>    3.2760    1.0000 </r>
       <r>    4.5700    1.0000 </r>
       <r>    4.8238    1.0000 </r>
       <r>    4.8238    1.0000 </r>
       <r>    5.3047    1.0000 </r>
       <r>    7.1319    0.0000 </r>
       <r>    7.4115    0.0000 </r>
       <r>    7.6660    0.0000 </r>
       <r>    7.7743    0.0000 </r>
      </set>
      <set comment="kpoint 2">
       <r>  -51.6371    1.0000 </r>
       <r>  -51.6218    1.0000 </r>
       <r>  -27.9409    1.0000 </r>
       <r>  -27.9400    1.0000 </r>
       <r>  -27.7922    1.0000 </r>
       <r>  -27.7913    1.0000 </r>
       <r>  -27.7394    1.0000 </r>
       <r>  -27.7091    1.0000 </r>
       <r>  -12.8538    1.0000 </r>
       <r>  -11.7754    1.0000 </r>
       <r>  -11.1329    1.0000 </r>
       <r>  -11.0717    1.0000 </r>
       <r>   -0.3398    1.0000 </r>
       <r>    0.0067    1.0000 </r>
       <r>    0.4972    1.0000 </r>
       <r>    1.4603    1.0000 </r>
       <r>    1.4690    1.0000 </r>
       <r>    2.5339    1.0000 </r>
       <r>    2.6590    1.0000 </r>
       <r>    3.2880    1.0000 </r>
       <r>    4.3307    1.0000 </r>
       <r>    4.3882    1.0000 </r>
       <r>    4.6042    1.0000 </r>
       <r>    5.2008    1.0000 </r>
       <r>    7.2841    0.0000 </r>
       <r>    7.6072    0.0000 </r>
       <r>    7.8726    0.0000 </r>
       <r>    7.8900    0.0000 </r>
      </set>
      <set comment="kpoint 3">
       <r>  -51.6338    1.0000 </r>
       <r>  -51.6250    1.0000 </r>
       <r>  -27.9164    1.0000 </r>
       <r>  -27.9141    1.0000 </r>
       <r>  -27.8203    1.0000 </r>
       <r>  -27.8179    1.0000 </r>
       <r>  -27.7330    1.0000 </r>
       <r>  -27.7155    1.0000 </r>
       <r>  -12.5788    1.0000 </r>
       <r>  -11.8746    1.0000 </r>
       <r>  -11.2925    1.0000 </r>
       <r>  -11.1704    1.0000 </r>
       <r>    0.0583    1.0000 </r>
       <r>    0.2661    1.0000 </r>
       <r>    1.0881    1.0000 </r>
       <r>    1.4888    1.0000 </r>
       <r>    1.5045    1.0000 </r>
       <r>    2.1862    1.0000 </r>
       <r>    2.4181    1.0000 </r>
       <r>    3.2638    1.0000 </r>
       <r>    3.3737    1.0000 </r>
       <r>    3.9925    1.0000 </r>
       <r>    4.3944    1.0000 </r>
       <r>    4.8958    1.0000 </r>
       <r>    7.5781    0.0000 </r>
       <r>    7.8265    0.0000 </r>
       <r>    8.1418    0.0000 </r>
       <r>    8.2191    0.0000 </r>
      </set>
      <set comment="kpoint 4">
       <r>  -51.6294    1.0000 </r>
       <r>  -51.6294    1.0000 </r>
       <r>  -27.8943    1.0000 </r>
       <r>  -27.8943    1.0000 </r>
       <r>  -27.8412    1.0000 </r>
       <r>  -27.8412    1.0000 </r>
       <r>  -27.7242    1.0000 </r>
       <r>  -27.7242    1.0000 </r>
       <r>  -12.2002    1.0000 </r>
       <r>  -12.2002    1.0000 </r>
       <r>  -11.2781    1.0000 </r>
       <r>  -11.2781    1.0000 </r>
       <r>    0.3515    1.0000 </r>
       <r>    0.3515    1.0000 </r>
       <r>    1.5126    1.0000 </r>
       <r>    1.5126    1.0000 </r>
       <r>    2.0087    1.0000 </r>
       <r>    2.0087    1.0000 </r>
       <r>    2.1790    1.0000 </r>
       <r>    2.1790    1.0000 </r>
       <r>    3.6112    1.0000 </r>
       <r>    3.6112    1.0000 </r>
       <r>    4.5483    1.0000 </r>
       <r>    4.5483    1.0000 </r>
       <r>    7.8008    0.0000 </r>
       <r>    7.8008    0.0000 </r>
       <r>    8.3172    0.0000 </r>
       <r>    8.3172    0.0000 </r>
      </set>
      <set comment="kpoint 5">
       <r>  -51.6361    1.0000 </r>
       <r>  -51.6228    1.0000 </r>
       <r>  -27.9533    1.0000 </r>
       <r>  -27.9126    1.0000 </r>
       <r>  -27.8211    1.0000 </r>
       <r>  -27.7790    1.0000 </r>
       <r>  -27.7374    1.0000 </r>
       <r>  -27.7111    1.0000 </r>
       <r>  -12.7704    1.0000 </r>
       <r>  -11.7922    1.0000 </r>
       <r>  -11.2307    1.0000 </r>
       <r>  -11.0674    1.0000 </r>
       <r>   -0.3463    1.0000 </r>
       <r>    0.2337    1.0000 </r>
       <r>    0.6583    1.0000 </r>
       <r>    1.4305    1.0000 </r>
       <r>    1.5073    1.0000 </r>
       <r>    2.2913    1.0000 </r>
       <r>    2.7651    1.0000 </r>
       <r>    3.3142    1.0000 </r>
       <r>    3.9925    1.0000 </r>
       <r>    4.2915    1.0000 </r>
       <r>    4.4825    1.0000 </r>
       <r>    5.1170    1.0000 </r>
       <r>    7.2054    0.0000 </r>
       <r>    7.7715    0.0000 </r>
       <r>    7.7797    0.0000 </r>
       <r>    8.0623    0.0000 </r>
      </set>
      <set comment="kpoint 6">
       <r>  -51.6332    1.0000 </r>
       <r>  -51.6256    1.0000 </r>
       <r>  -27.9459    1.0000 </r>
       <r>  -27.8946    1.0000 </r>
       <r>  -27.8408    1.0000 </r>
       <r>  -27.7882    1.0000 </r>
       <r>  -27.7318    1.0000 </r>
       <r>  -27.7167    1.0000 </r>
       <r>  -12.5397    1.0000 </r>
       <r>  -11.9257    1.0000 </r>
       <r>  -11.3097    1.0000 </r>
       <r>  -11.1387    1.0000 </r>
       <r>   -0.1777    1.0000 </r>
       <r>    0.4054    1.0000 </r>
       <r>    1.1764    1.0000 </r>
       <r>    1.4359    1.0000 </r>
       <r>    1.5133    1.0000 </r>
       <r>    2.1648    1.0000 </r>
       <r>    2.6154    1.0000 </r>
       <r>    3.4039    1.0000 </r>
       <r>    3.4380    1.0000 </r>
       <r>    4.0260    1.0000 </r>
       <r>    4.1859    1.0000 </r>
       <r>    4.7911    1.0000 </r>
       <r>    7.3786    0.0000 </r>
       <r>    7.8388    0.0000 </r>
       <r>    7.9150    0.0000 </r>
       <r>    8.3229    0.0000 </r>
      </set>
      <set comment="kpoint 7">
       <r>  -51.6294    1.0000 </r>
       <r>  -51.6294    1.0000 </r>
       <r>  -27.9206    1.0000 </r>
       <r>  -27.9206    1.0000 </r>
       <r>  -27.8150    1.0000 </r>
       <r>  -27.8150    1.0000 </r>
       <r>  -27.7242    1.0000 </r>
       <r>  -27.7242    1.0000 </r>
       <r>  -12.2212    1.0000 </r>
       <r>  -12.2212    1.0000 </r>
       <r>  -11.2488    1.0000 </r>
       <r>  -11.2488    1.0000 </r>
       <r>    0.1578    1.0000 </r>
       <r>    0.1578    1.0000 </r>
       <r>    1.4759    1.0000 </r>
       <r>    1.4759    1.0000 </r>
       <r>    1.8953    1.0000 </r>
       <r>    1.8953    1.0000 </r>
       <r>    2.7156    1.0000 </r>
       <r>    2.7156    1.0000 </r>
       <r>    3.6972    1.0000 </r>
       <r>    3.6972    1.0000 </r>
       <r>    4.3572    1.0000 </r>
       <r>    4.3572    1.0000 </r>
       <r>    7.6751    0.0000 </r>
       <r>    7.6751    0.0000 </r>
       <r>    8.1833    0.0000 </r>
       <r>    8.1833    0.0000 </r>
      </set>
      <set comment="kpoint 8">
       <r>  -51.6316    1.0000 </r>
       <r>  -51.6272    1.0000 </r>
       <r>  -27.9598    1.0000 </r>
       <r>  -27.9233    1.0000 </r>
       <r>  -27.8130    1.0000 </r>
       <r>  -27.7750    1.0000 </r>
       <r>  -27.7285    1.0000 </r>
       <r>  -27.7198    1.0000 </r>
       <r>  -12.4277    1.0000 </r>
       <r>  -12.0725    1.0000 </r>
       <r>  -11.2746    1.0000 </r>
       <r>  -11.1341    1.0000 </r>
       <r>   -0.3041    1.0000 </r>
       <r>    0.1770    1.0000 </r>
       <r>    1.3944    1.0000 </r>
       <r>    1.4657    1.0000 </r>
       <r>    1.5533    1.0000 </r>
       <r>    2.3957    1.0000 </r>
       <r>    2.9301    1.0000 </r>
       <r>    3.4559    1.0000 </r>
       <r>    3.6289    1.0000 </r>
       <r>    3.7781    1.0000 </r>
       <r>    4.0234    1.0000 </r>
       <r>    4.5791    1.0000 </r>
       <r>    7.1873    0.0000 </r>
       <r>    7.6770    0.0000 </r>
       <r>    7.7914    0.0000 </r>
       <r>    8.1877    0.0000 </r>
      </set>
      <set comment="kpoint 9">
       <r>  -51.6294    1.0000 </r>
       <r>  -51.6294    1.0000 </r>
       <r>  -27.9513    1.0000 </r>
       <r>  -27.9513    1.0000 </r>
       <r>  -27.7846    1.0000 </r>
       <r>  -27.7846    1.0000 </r>
       <r>  -27.7242    1.0000 </r>
       <r>  -27.7242    1.0000 </r>
       <r>  -12.2601    1.0000 </r>
       <r>  -12.2601    1.0000 </r>
       <r>  -11.1932    1.0000 </r>
       <r>  -11.1932    1.0000 </r>
       <r>   -0.1631    1.0000 </r>
       <r>   -0.1631    1.0000 </r>
       <r>    1.4079    1.0000 </r>
       <r>    1.4079    1.0000 </r>
       <r>    2.1395    1.0000 </r>
       <r>    2.1395    1.0000 </r>
       <r>    3.2015    1.0000 </r>
       <r>    3.2015    1.0000 </r>
       <r>    3.8704    1.0000 </r>
       <r>    3.8704    1.0000 </r>
       <r>    4.0920    1.0000 </r>
       <r>    4.0920    1.0000 </r>
       <r>    7.3643    0.0000 </r>
       <r>    7.3643    0.0000 </r>
       <r>    7.9246    0.0000 </r>
       <r>    7.9246    0.0000 </r>
      </set>
      <set comment="kpoint 10">
       <r>  -51.6293    1.0000 </r>
       <r>  -51.6293    1.0000 </r>
       <r>  -27.9630    1.0000 </r>
       <r>  -27.9630    1.0000 </r>
       <r>  -27.7730    1.0000 </r>
       <r>  -27.7730    1.0000 </r>
       <r>  -27.7241    1.0000 </r>
       <r>  -27.7241    1.0000 </r>
       <r>  -12.2782    1.0000 </r>
       <r>  -12.2782    1.0000 </r>
       <r>  -11.1665    1.0000 </r>
       <r>  -11.1665    1.0000 </r>
       <r>   -0.3000    1.0000 </r>
       <r>   -0.3000    1.0000 </r>
       <r>    1.3765    1.0000 </r>
       <r>    1.3765    1.0000 </r>
       <r>    2.4173    1.0000 </r>
       <r>    2.4173    1.0000 </r>
       <r>    3.0806    1.0000 </r>
       <r>    3.0806    1.0000 </r>
       <r>    3.9590    1.0000 </r>
       <r>    3.9590    1.0000 </r>
       <r>    4.1901    1.0000 </r>
       <r>    4.1901    1.0000 </r>
       <r>    7.1656    0.0000 </r>
       <r>    7.1656    0.0000 </r>
       <r>    7.7976    0.0000 </r>
       <r>    7.7976    0.0000 </r>
      </set>
      <set comment="kpoint 11">
       <r>  -51.6270    1.0000 </r>
       <r>  -51.6116    1.0000 </r>
       <r>  -27.9199    1.0000 </r>
       <r>  -27.9199    1.0000 </r>
       <r>  -27.8555    1.0000 </r>
       <r>  -27.8268    1.0000 </r>
       <r>  -27.7762    1.0000 </r>
       <r>  -27.7762    1.0000 </r>
       <r>  -12.6735    1.0000 </r>
       <r>  -11.6212    1.0000 </r>
       <r>  -11.1626    1.0000 </r>
       <r>  -11.1626    1.0000 </r>
       <r>   -0.1345    1.0000 </r>
       <r>    0.1797    1.0000 </r>
       <r>    0.6329    1.0000 </r>
       <r>    1.2083    1.0000 </r>
       <r>    1.2083    1.0000 </r>
       <r>    2.5313    1.0000 </r>
       <r>    3.1941    1.0000 </r>
       <r>    3.1941    1.0000 </r>
       <r>    3.5763    1.0000 </r>
       <r>    4.2967    1.0000 </r>
       <r>    4.2967    1.0000 </r>
       <r>    5.1300    1.0000 </r>
       <r>    7.5309    0.0000 </r>
       <r>    7.6402    0.0000 </r>
       <r>    7.7034    0.0000 </r>
       <r>    8.1069    0.0000 </r>
      </set>
      <set comment="kpoint 12">
       <r>  -51.6259    1.0000 </r>
       <r>  -51.6126    1.0000 </r>
       <r>  -27.9154    1.0000 </r>
       <r>  -27.9113    1.0000 </r>
       <r>  -27.8513    1.0000 </r>
       <r>  -27.8347    1.0000 </r>
       <r>  -27.7838    1.0000 </r>
       <r>  -27.7797    1.0000 </r>
       <r>  -12.5861    1.0000 </r>
       <r>  -11.6124    1.0000 </r>
       <r>  -11.2575    1.0000 </r>
       <r>  -11.1926    1.0000 </r>
       <r>    0.0159    1.0000 </r>
       <r>    0.3031    1.0000 </r>
       <r>    0.7047    1.0000 </r>
       <r>    1.1870    1.0000 </r>
       <r>    1.3745    1.0000 </r>
       <r>    2.4273    1.0000 </r>
       <r>    2.9091    1.0000 </r>
       <r>    3.1904    1.0000 </r>
       <r>    3.3683    1.0000 </r>
       <r>    4.2164    1.0000 </r>
       <r>    4.2326    1.0000 </r>
       <r>    5.0299    1.0000 </r>
       <r>    7.5632    0.0000 </r>
       <r>    7.8283    0.0000 </r>
       <r>    7.8442    0.0000 </r>
       <r>    8.1048    0.0000 </r>
      </set>
      <set comment="kpoint 13">
       <r>  -51.6230    1.0000 </r>
       <r>  -51.6154    1.0000 </r>
       <r>  -27.9017    1.0000 </r>
       <r>  -27.8881    1.0000 </r>
       <r>  -27.8549    1.0000 </r>
       <r>  -27.8452    1.0000 </r>
       <r>  -27.8000    1.0000 </r>
       <r>  -27.7894    1.0000 </r>
       <r>  -12.3431    1.0000 </r>
       <r>  -11.6855    1.0000 </r>
       <r>  -11.4065    1.0000 </r>
       <r>  -11.2708    1.0000 </r>
       <r>    0.3725    1.0000 </r>
       <r>    0.5940    1.0000 </r>
       <r>    0.9214    1.0000 </r>
       <r>    1.1357    1.0000 </r>
       <r>    1.7380    1.0000 </r>
       <r>    2.3709    1.0000 </r>
       <r>    2.3724    1.0000 </r>
       <r>    2.8987    1.0000 </r>
       <r>    2.9314    1.0000 </r>
       <r>    3.7967    1.0000 </r>
       <r>    4.3301    1.0000 </r>
       <r>    4.8173    1.0000 </r>
       <r>    7.7659    0.0000 </r>
       <r>    8.0431    0.0000 </r>
       <r>    8.1133    0.0000 </r>
       <r>    8.2445    0.0000 </r>
      </set>
      <set comment="kpoint 14">
       <r>  -51.6192    1.0000 </r>
       <r>  -51.6192    1.0000 </r>
       <r>  -27.8800    1.0000 </r>
       <r>  -27.8800    1.0000 </r>
       <r>  -27.8592    1.0000 </r>
       <r>  -27.8592    1.0000 </r>
       <r>  -27.8013    1.0000 </r>
       <r>  -27.8013    1.0000 </r>
       <r>  -12.0022    1.0000 </r>
       <r>  -12.0022    1.0000 </r>
       <r>  -11.3648    1.0000 </r>
       <r>  -11.3648    1.0000 </r>
       <r>    0.6747    1.0000 </r>
       <r>    0.6747    1.0000 </r>
       <r>    1.1269    1.0000 </r>
       <r>    1.1269    1.0000 </r>
       <r>    1.9463    1.0000 </r>
       <r>    1.9463    1.0000 </r>
       <r>    2.5438    1.0000 </r>
       <r>    2.5438    1.0000 </r>
       <r>    3.0981    1.0000 </r>
       <r>    3.0981    1.0000 </r>
       <r>    4.5897    1.0000 </r>
       <r>    4.5897    1.0000 </r>
       <r>    7.9629    0.0000 </r>
       <r>    7.9629    0.0000 </r>
       <r>    8.3656    0.0000 </r>
       <r>    8.3656    0.0000 </r>
      </set>
      <set comment="kpoint 15">
       <r>  -51.6250    1.0000 </r>
       <r>  -51.6135    1.0000 </r>
       <r>  -27.9228    1.0000 </r>
       <r>  -27.8938    1.0000 </r>
       <r>  -27.8519    1.0000 </r>
       <r>  -27.8401    1.0000 </r>
       <r>  -27.7944    1.0000 </r>
       <r>  -27.7745    1.0000 </r>
       <r>  -12.5114    1.0000 </r>
       <r>  -11.6157    1.0000 </r>
       <r>  -11.3458    1.0000 </r>
       <r>  -11.1940    1.0000 </r>
       <r>   -0.0141    1.0000 </r>
       <r>    0.5397    1.0000 </r>
       <r>    0.7275    1.0000 </r>
       <r>    1.2494    1.0000 </r>
       <r>    1.4399    1.0000 </r>
       <r>    2.2763    1.0000 </r>
       <r>    2.9105    1.0000 </r>
       <r>    3.1200    1.0000 </r>
       <r>    3.2015    1.0000 </r>
       <r>    4.1765    1.0000 </r>
       <r>    4.2351    1.0000 </r>
       <r>    4.9082    1.0000 </r>
       <r>    7.5932    0.0000 </r>
       <r>    7.6402    0.0000 </r>
       <r>    8.0323    0.0000 </r>
       <r>    8.3197    0.0000 </r>
      </set>
      <set comment="kpoint 16">
       <r>  -51.6225    1.0000 </r>
       <r>  -51.6159    1.0000 </r>
       <r>  -27.9182    1.0000 </r>
       <r>  -27.8735    1.0000 </r>
       <r>  -27.8702    1.0000 </r>
       <r>  -27.8374    1.0000 </r>
       <r>  -27.8019    1.0000 </r>
       <r>  -27.7789    1.0000 </r>
       <r>  -12.3046    1.0000 </r>
       <r>  -11.7359    1.0000 </r>
       <r>  -11.4097    1.0000 </r>
       <r>  -11.2529    1.0000 </r>
       <r>    0.1356    1.0000 </r>
       <r>    0.7416    1.0000 </r>
       <r>    0.8375    1.0000 </r>
       <r>    1.1344    1.0000 </r>
       <r>    1.8160    1.0000 </r>
       <r>    2.2523    1.0000 </r>
       <r>    2.6974    1.0000 </r>
       <r>    2.8039    1.0000 </r>
       <r>    3.2289    1.0000 </r>
       <r>    3.8470    1.0000 </r>
       <r>    4.1861    1.0000 </r>
       <r>    4.6471    1.0000 </r>
       <r>    7.7280    0.0000 </r>
       <r>    7.8404    0.0000 </r>
       <r>    8.0636    0.0000 </r>
       <r>    8.4257    0.0000 </r>
      </set>
      <set comment="kpoint 17">
       <r>  -51.6192    1.0000 </r>
       <r>  -51.6192    1.0000 </r>
       <r>  -27.9000    1.0000 </r>
       <r>  -27.9000    1.0000 </r>
       <r>  -27.8484    1.0000 </r>
       <r>  -27.8484    1.0000 </r>
       <r>  -27.7923    1.0000 </r>
       <r>  -27.7923    1.0000 </r>
       <r>  -12.0167    1.0000 </r>
       <r>  -12.0167    1.0000 </r>
       <r>  -11.3439    1.0000 </r>
       <r>  -11.3439    1.0000 </r>
       <r>    0.4735    1.0000 </r>
       <r>    0.4735    1.0000 </r>
       <r>    1.0008    1.0000 </r>
       <r>    1.0008    1.0000 </r>
       <r>    2.1813    1.0000 </r>
       <r>    2.1813    1.0000 </r>
       <r>    2.8056    1.0000 </r>
       <r>    2.8056    1.0000 </r>
       <r>    3.1916    1.0000 </r>
       <r>    3.1916    1.0000 </r>
       <r>    4.3934    1.0000 </r>
       <r>    4.3934    1.0000 </r>
       <r>    7.9228    0.0000 </r>
       <r>    7.9228    0.0000 </r>
       <r>    8.2422    0.0000 </r>
       <r>    8.2422    0.0000 </r>
      </set>
      <set comment="kpoint 18">
       <r>  -51.6211    1.0000 </r>
       <r>  -51.6172    1.0000 </r>
       <r>  -27.9286    1.0000 </r>
       <r>  -27.9017    1.0000 </r>
       <r>  -27.8538    1.0000 </r>
       <r>  -27.8352    1.0000 </r>
       <r>  -27.7915    1.0000 </r>
       <r>  -27.7710    1.0000 </r>
       <r>  -12.1976    1.0000 </r>
       <r>  -11.8738    1.0000 </r>
       <r>  -11.3712    1.0000 </r>
       <r>  -11.2554    1.0000 </r>
       <r>    0.0082    1.0000 </r>
       <r>    0.4961    1.0000 </r>
       <r>    0.8041    1.0000 </r>
       <r>    0.9994    1.0000 </r>
       <r>    2.2210    1.0000 </r>
       <r>    2.5148    1.0000 </r>
       <r>    3.0069    1.0000 </r>
       <r>    3.0879    1.0000 </r>
       <r>    3.2338    1.0000 </r>
       <r>    3.8569    1.0000 </r>
       <r>    3.9429    1.0000 </r>
       <r>    4.2395    1.0000 </r>
       <r>    7.5986    0.0000 </r>
       <r>    7.8566    0.0000 </r>
       <r>    8.0014    0.0000 </r>
       <r>    8.2961    0.0000 </r>
      </set>
      <set comment="kpoint 19">
       <r>  -51.6191    1.0000 </r>
       <r>  -51.6191    1.0000 </r>
       <r>  -27.9227    1.0000 </r>
       <r>  -27.9227    1.0000 </r>
       <r>  -27.8422    1.0000 </r>
       <r>  -27.8422    1.0000 </r>
       <r>  -27.7764    1.0000 </r>
       <r>  -27.7764    1.0000 </r>
       <r>  -12.0435    1.0000 </r>
       <r>  -12.0435    1.0000 </r>
       <r>  -11.3042    1.0000 </r>
       <r>  -11.3042    1.0000 </r>
       <r>    0.1469    1.0000 </r>
       <r>    0.1469    1.0000 </r>
       <r>    0.8708    1.0000 </r>
       <r>    0.8708    1.0000 </r>
       <r>    2.6542    1.0000 </r>
       <r>    2.6542    1.0000 </r>
       <r>    3.0925    1.0000 </r>
       <r>    3.0925    1.0000 </r>
       <r>    3.5305    1.0000 </r>
       <r>    3.5305    1.0000 </r>
       <r>    3.9241    1.0000 </r>
       <r>    3.9241    1.0000 </r>
       <r>    7.7579    0.0000 </r>
       <r>    7.7579    0.0000 </r>
       <r>    8.0396    0.0000 </r>
       <r>    8.0396    0.0000 </r>
      </set>
      <set comment="kpoint 20">
       <r>  -51.6191    1.0000 </r>
       <r>  -51.6191    1.0000 </r>
       <r>  -27.9315    1.0000 </r>
       <r>  -27.9315    1.0000 </r>
       <r>  -27.8408    1.0000 </r>
       <r>  -27.8408    1.0000 </r>
       <r>  -27.7693    1.0000 </r>
       <r>  -27.7693    1.0000 </r>
       <r>  -12.0560    1.0000 </r>
       <r>  -12.0560    1.0000 </r>
       <r>  -11.2853    1.0000 </r>
       <r>  -11.2853    1.0000 </r>
       <r>    0.0111    1.0000 </r>
       <r>    0.0111    1.0000 </r>
       <r>    0.8245    1.0000 </r>
       <r>    0.8245    1.0000 </r>
       <r>    3.1295    1.0000 </r>
       <r>    3.1295    1.0000 </r>
       <r>    3.2486    1.0000 </r>
       <r>    3.2486    1.0000 </r>
       <r>    3.2679    1.0000 </r>
       <r>    3.2679    1.0000 </r>
       <r>    3.8475    1.0000 </r>
       <r>    3.8475    1.0000 </r>
       <r>    7.6189    0.0000 </r>
       <r>    7.6189    0.0000 </r>
       <r>    7.9774    0.0000 </r>
       <r>    7.9774    0.0000 </r>
      </set>
      <set comment="kpoint 21">
       <r>  -51.6032    1.0000 </r>
       <r>  -51.5943    1.0000 </r>
       <r>  -28.0756    1.0000 </r>
       <r>  -28.0605    1.0000 </r>
       <r>  -27.8532    1.0000 </r>
       <r>  -27.8532    1.0000 </r>
       <r>  -27.7723    1.0000 </r>
       <r>  -27.7723    1.0000 </r>
       <r>  -12.0331    1.0000 </r>
       <r>  -11.4199    1.0000 </r>
       <r>  -11.4199    1.0000 </r>
       <r>  -11.3855    1.0000 </r>
       <r>    0.6599    1.0000 </r>
       <r>    0.7186    1.0000 </r>
       <r>    1.2294    1.0000 </r>
       <r>    1.2294    1.0000 </r>
       <r>    1.4914    1.0000 </r>
       <r>    1.5429    1.0000 </r>
       <r>    2.1801    1.0000 </r>
       <r>    3.2216    1.0000 </r>
       <r>    3.2216    1.0000 </r>
       <r>    3.7133    1.0000 </r>
       <r>    3.7133    1.0000 </r>
       <r>    4.2802    1.0000 </r>
       <r>    7.6466    0.0000 </r>
       <r>    7.9949    0.0000 </r>
       <r>    8.4201    0.0000 </r>
       <r>    8.6916    0.0000 </r>
      </set>
      <set comment="kpoint 22">
       <r>  -51.6025    1.0000 </r>
       <r>  -51.5948    1.0000 </r>
       <r>  -28.0782    1.0000 </r>
       <r>  -28.0648    1.0000 </r>
       <r>  -27.8469    1.0000 </r>
       <r>  -27.8451    1.0000 </r>
       <r>  -27.7770    1.0000 </r>
       <r>  -27.7756    1.0000 </r>
       <r>  -12.0047    1.0000 </r>
       <r>  -11.5326    1.0000 </r>
       <r>  -11.4060    1.0000 </r>
       <r>  -11.3164    1.0000 </r>
       <r>    0.6880    1.0000 </r>
       <r>    0.8115    1.0000 </r>
       <r>    0.8974    1.0000 </r>
       <r>    1.1725    1.0000 </r>
       <r>    1.6268    1.0000 </r>
       <r>    1.8908    1.0000 </r>
       <r>    2.0017    1.0000 </r>
       <r>    3.1478    1.0000 </r>
       <r>    3.3065    1.0000 </r>
       <r>    3.6289    1.0000 </r>
       <r>    3.7213    1.0000 </r>
       <r>    4.4002    1.0000 </r>
       <r>    7.4996    0.0000 </r>
       <r>    8.1118    0.0000 </r>
       <r>    8.4453    0.0000 </r>
       <r>    8.4507    0.0000 </r>
      </set>
      <set comment="kpoint 23">
       <r>  -51.6009    1.0000 </r>
       <r>  -51.5964    1.0000 </r>
       <r>  -28.0822    1.0000 </r>
       <r>  -28.0741    1.0000 </r>
       <r>  -27.8308    1.0000 </r>
       <r>  -27.8259    1.0000 </r>
       <r>  -27.7901    1.0000 </r>
       <r>  -27.7858    1.0000 </r>
       <r>  -11.9263    1.0000 </r>
       <r>  -11.6762    1.0000 </r>
       <r>  -11.3674    1.0000 </r>
       <r>  -11.2921    1.0000 </r>
       <r>    0.6611    1.0000 </r>
       <r>    0.8229    1.0000 </r>
       <r>    0.8596    1.0000 </r>
       <r>    1.1785    1.0000 </r>
       <r>    1.5204    1.0000 </r>
       <r>    1.9014    1.0000 </r>
       <r>    2.3560    1.0000 </r>
       <r>    3.0392    1.0000 </r>
       <r>    3.1045    1.0000 </r>
       <r>    3.6051    1.0000 </r>
       <r>    3.9193    1.0000 </r>
       <r>    4.5057    1.0000 </r>
       <r>    7.3557    0.0000 </r>
       <r>    7.9882    0.0000 </r>
       <r>    8.3592    0.0000 </r>
       <r>    8.5178    0.0000 </r>
      </set>
      <set comment="kpoint 24">
       <r>  -51.5987    1.0000 </r>
       <r>  -51.5987    1.0000 </r>
       <r>  -28.0813    1.0000 </r>
       <r>  -28.0813    1.0000 </r>
       <r>  -27.8125    1.0000 </r>
       <r>  -27.8125    1.0000 </r>
       <r>  -27.8010    1.0000 </r>
       <r>  -27.8010    1.0000 </r>
       <r>  -11.8125    1.0000 </r>
       <r>  -11.8125    1.0000 </r>
       <r>  -11.3192    1.0000 </r>
       <r>  -11.3192    1.0000 </r>
       <r>    0.7010    1.0000 </r>
       <r>    0.7010    1.0000 </r>
       <r>    1.0068    1.0000 </r>
       <r>    1.0068    1.0000 </r>
       <r>    1.7799    1.0000 </r>
       <r>    1.7799    1.0000 </r>
       <r>    2.5684    1.0000 </r>
       <r>    2.5684    1.0000 </r>
       <r>    3.4430    1.0000 </r>
       <r>    3.4430    1.0000 </r>
       <r>    4.2735    1.0000 </r>
       <r>    4.2735    1.0000 </r>
       <r>    7.5547    0.0000 </r>
       <r>    7.5547    0.0000 </r>
       <r>    8.5213    0.0000 </r>
       <r>    8.5213    0.0000 </r>
      </set>
      <set comment="kpoint 25">
       <r>  -51.6020    1.0000 </r>
       <r>  -51.5953    1.0000 </r>
       <r>  -28.0800    1.0000 </r>
       <r>  -28.0661    1.0000 </r>
       <r>  -27.8551    1.0000 </r>
       <r>  -27.8268    1.0000 </r>
       <r>  -27.7889    1.0000 </r>
       <r>  -27.7715    1.0000 </r>
       <r>  -11.9756    1.0000 </r>
       <r>  -11.5453    1.0000 </r>
       <r>  -11.4462    1.0000 </r>
       <r>  -11.2924    1.0000 </r>
       <r>    0.6649    1.0000 </r>
       <r>    0.8653    1.0000 </r>
       <r>    0.8716    1.0000 </r>
       <r>    0.9615    1.0000 </r>
       <r>    1.6915    1.0000 </r>
       <r>    1.9985    1.0000 </r>
       <r>    2.1286    1.0000 </r>
       <r>    3.0601    1.0000 </r>
       <r>    3.1740    1.0000 </r>
       <r>    3.7083    1.0000 </r>
       <r>    3.7963    1.0000 </r>
       <r>    4.4849    1.0000 </r>
       <r>    7.4213    0.0000 </r>
       <r>    8.1385    0.0000 </r>
       <r>    8.4160    0.0000 </r>
       <r>    8.5705    0.0000 </r>
      </set>
      <set comment="kpoint 26">
       <r>  -51.6006    1.0000 </r>
       <r>  -51.5967    1.0000 </r>
       <r>  -28.0813    1.0000 </r>
       <r>  -28.0713    1.0000 </r>
       <r>  -27.8492    1.0000 </r>
       <r>  -27.8121    1.0000 </r>
       <r>  -27.8013    1.0000 </r>
       <r>  -27.7747    1.0000 </r>
       <r>  -11.8953    1.0000 </r>
       <r>  -11.6481    1.0000 </r>
       <r>  -11.4178    1.0000 </r>
       <r>  -11.2986    1.0000 </r>
       <r>    0.6080    1.0000 </r>
       <r>    0.7075    1.0000 </r>
       <r>    0.8174    1.0000 </r>
       <r>    1.1562    1.0000 </r>
       <r>    1.4403    1.0000 </r>
       <r>    2.0998    1.0000 </r>
       <r>    2.4859    1.0000 </r>
       <r>    2.9238    1.0000 </r>
       <r>    3.2102    1.0000 </r>
       <r>    3.6042    1.0000 </r>
       <r>    4.0080    1.0000 </r>
       <r>    4.5417    1.0000 </r>
       <r>    7.3891    0.0000 </r>
       <r>    8.0653    0.0000 </r>
       <r>    8.2827    0.0000 </r>
       <r>    8.5258    0.0000 </r>
      </set>
      <set comment="kpoint 27">
       <r>  -51.5986    1.0000 </r>
       <r>  -51.5986    1.0000 </r>
       <r>  -28.0780    1.0000 </r>
       <r>  -28.0780    1.0000 </r>
       <r>  -27.8315    1.0000 </r>
       <r>  -27.8315    1.0000 </r>
       <r>  -27.7857    1.0000 </r>
       <r>  -27.7857    1.0000 </r>
       <r>  -11.7794    1.0000 </r>
       <r>  -11.7794    1.0000 </r>
       <r>  -11.3505    1.0000 </r>
       <r>  -11.3505    1.0000 </r>
       <r>    0.6043    1.0000 </r>
       <r>    0.6043    1.0000 </r>
       <r>    0.9612    1.0000 </r>
       <r>    0.9612    1.0000 </r>
       <r>    1.7583    1.0000 </r>
       <r>    1.7583    1.0000 </r>
       <r>    2.7828    1.0000 </r>
       <r>    2.7828    1.0000 </r>
       <r>    3.4225    1.0000 </r>
       <r>    3.4225    1.0000 </r>
       <r>    4.3106    1.0000 </r>
       <r>    4.3106    1.0000 </r>
       <r>    7.6431    0.0000 </r>
       <r>    7.6431    0.0000 </r>
       <r>    8.4419    0.0000 </r>
       <r>    8.4419    0.0000 </r>
      </set>
      <set comment="kpoint 28">
       <r>  -51.5997    1.0000 </r>
       <r>  -51.5975    1.0000 </r>
       <r>  -28.0771    1.0000 </r>
       <r>  -28.0685    1.0000 </r>
       <r>  -27.8589    1.0000 </r>
       <r>  -27.8329    1.0000 </r>
       <r>  -27.7848    1.0000 </r>
       <r>  -27.7698    1.0000 </r>
       <r>  -11.8097    1.0000 </r>
       <r>  -11.6004    1.0000 </r>
       <r>  -11.4978    1.0000 </r>
       <r>  -11.3472    1.0000 </r>
       <r>    0.5527    1.0000 </r>
       <r>    0.5934    1.0000 </r>
       <r>    0.6276    1.0000 </r>
       <r>    0.9863    1.0000 </r>
       <r>    1.6000    1.0000 </r>
       <r>    2.1054    1.0000 </r>
       <r>    2.8286    1.0000 </r>
       <r>    2.9177    1.0000 </r>
       <r>    3.2961    1.0000 </r>
       <r>    3.7048    1.0000 </r>
       <r>    4.0949    1.0000 </r>
       <r>    4.5309    1.0000 </r>
       <r>    7.5581    0.0000 </r>
       <r>    8.1705    0.0000 </r>
       <r>    8.3308    0.0000 </r>
       <r>    8.3531    0.0000 </r>
      </set>
      <set comment="kpoint 29">
       <r>  -51.5986    1.0000 </r>
       <r>  -51.5986    1.0000 </r>
       <r>  -28.0711    1.0000 </r>
       <r>  -28.0711    1.0000 </r>
       <r>  -27.8522    1.0000 </r>
       <r>  -27.8522    1.0000 </r>
       <r>  -27.7732    1.0000 </r>
       <r>  -27.7732    1.0000 </r>
       <r>  -11.6910    1.0000 </r>
       <r>  -11.6910    1.0000 </r>
       <r>  -11.4354    1.0000 </r>
       <r>  -11.4354    1.0000 </r>
       <r>    0.5064    1.0000 </r>
       <r>    0.5064    1.0000 </r>
       <r>    0.7421    1.0000 </r>
       <r>    0.7421    1.0000 </r>
       <r>    1.8862    1.0000 </r>
       <r>    1.8862    1.0000 </r>
       <r>    2.9508    1.0000 </r>
       <r>    2.9508    1.0000 </r>
       <r>    3.5590    1.0000 </r>
       <r>    3.5590    1.0000 </r>
       <r>    4.3267    1.0000 </r>
       <r>    4.3267    1.0000 </r>
       <r>    7.9034    0.0000 </r>
       <r>    7.9034    0.0000 </r>
       <r>    8.3003    0.0000 </r>
       <r>    8.3003    0.0000 </r>
      </set>
      <set comment="kpoint 30">
       <r>  -51.5986    1.0000 </r>
       <r>  -51.5986    1.0000 </r>
       <r>  -28.0673    1.0000 </r>
       <r>  -28.0673    1.0000 </r>
       <r>  -27.8608    1.0000 </r>
       <r>  -27.8608    1.0000 </r>
       <r>  -27.7689    1.0000 </r>
       <r>  -27.7689    1.0000 </r>
       <r>  -11.6016    1.0000 </r>
       <r>  -11.6016    1.0000 </r>
       <r>  -11.5231    1.0000 </r>
       <r>  -11.5231    1.0000 </r>
       <r>    0.5089    1.0000 </r>
       <r>    0.5089    1.0000 </r>
       <r>    0.5936    1.0000 </r>
       <r>    0.5936    1.0000 </r>
       <r>    1.9676    1.0000 </r>
       <r>    1.9676    1.0000 </r>
       <r>    2.9580    1.0000 </r>
       <r>    2.9580    1.0000 </r>
       <r>    3.7079    1.0000 </r>
       <r>    3.7079    1.0000 </r>
       <r>    4.2996    1.0000 </r>
       <r>    4.2996    1.0000 </r>
       <r>    8.2344    0.0000 </r>
       <r>    8.2420    0.0000 </r>
       <r>    8.2480    0.0000 </r>
       <r>    8.2497    0.0000 </r>
      </set>
      <set comment="kpoint 31">
       <r>  -51.5884    1.0000 </r>
       <r>  -51.5884    1.0000 </r>
       <r>  -28.1783    1.0000 </r>
       <r>  -28.1783    1.0000 </r>
       <r>  -27.8048    1.0000 </r>
       <r>  -27.8048    1.0000 </r>
       <r>  -27.7851    1.0000 </r>
       <r>  -27.7851    1.0000 </r>
       <r>  -11.5475    1.0000 </r>
       <r>  -11.5475    1.0000 </r>
       <r>  -11.4857    1.0000 </r>
       <r>  -11.4857    1.0000 </r>
       <r>    0.7522    1.0000 </r>
       <r>    0.7522    1.0000 </r>
       <r>    1.5371    1.0000 </r>
       <r>    1.5371    1.0000 </r>
       <r>    1.6414    1.0000 </r>
       <r>    1.6414    1.0000 </r>
       <r>    2.4955    1.0000 </r>
       <r>    2.4955    1.0000 </r>
       <r>    2.8809    1.0000 </r>
       <r>    2.8809    1.0000 </r>
       <r>    3.8603    1.0000 </r>
       <r>    3.8603    1.0000 </r>
       <r>    8.2736    0.0000 </r>
       <r>    8.2736    0.0000 </r>
       <r>    8.4573    0.0000 </r>
       <r>    8.4573    0.0000 </r>
      </set>
      <set comment="kpoint 32">
       <r>  -51.5884    1.0000 </r>
       <r>  -51.5884    1.0000 </r>
       <r>  -28.1813    1.0000 </r>
       <r>  -28.1813    1.0000 </r>
       <r>  -27.8021    1.0000 </r>
       <r>  -27.8021    1.0000 </r>
       <r>  -27.7849    1.0000 </r>
       <r>  -27.7849    1.0000 </r>
       <r>  -11.6993    1.0000 </r>
       <r>  -11.6993    1.0000 </r>
       <r>  -11.3269    1.0000 </r>
       <r>  -11.3269    1.0000 </r>
       <r>    0.6446    1.0000 </r>
       <r>    0.6446    1.0000 </r>
       <r>    1.1882    1.0000 </r>
       <r>    1.1882    1.0000 </r>
       <r>    1.9541    1.0000 </r>
       <r>    1.9541    1.0000 </r>
       <r>    2.5568    1.0000 </r>
       <r>    2.5568    1.0000 </r>
       <r>    3.1897    1.0000 </r>
       <r>    3.1897    1.0000 </r>
       <r>    3.7523    1.0000 </r>
       <r>    3.7523    1.0000 </r>
       <r>    8.0004    0.0000 </r>
       <r>    8.0004    0.0000 </r>
       <r>    8.4632    0.0000 </r>
       <r>    8.4632    0.0000 </r>
      </set>
      <set comment="kpoint 33">
       <r>  -51.5883    1.0000 </r>
       <r>  -51.5883    1.0000 </r>
       <r>  -28.1871    1.0000 </r>
       <r>  -28.1871    1.0000 </r>
       <r>  -27.7970    1.0000 </r>
       <r>  -27.7970    1.0000 </r>
       <r>  -27.7842    1.0000 </r>
       <r>  -27.7842    1.0000 </r>
       <r>  -11.8262    1.0000 </r>
       <r>  -11.8262    1.0000 </r>
       <r>  -11.1859    1.0000 </r>
       <r>  -11.1859    1.0000 </r>
       <r>    0.3329    1.0000 </r>
       <r>    0.3329    1.0000 </r>
       <r>    1.1852    1.0000 </r>
       <r>    1.1852    1.0000 </r>
       <r>    2.0038    1.0000 </r>
       <r>    2.0038    1.0000 </r>
       <r>    2.7323    1.0000 </r>
       <r>    2.7323    1.0000 </r>
       <r>    3.4436    1.0000 </r>
       <r>    3.4436    1.0000 </r>
       <r>    3.8882    1.0000 </r>
       <r>    3.8882    1.0000 </r>
       <r>    7.4804    0.0000 </r>
       <r>    7.4804    0.0000 </r>
       <r>    8.4738    0.0000 </r>
       <r>    8.4738    0.0000 </r>
      </set>
      <set comment="kpoint 34">
       <r>  -51.5883    1.0000 </r>
       <r>  -51.5883    1.0000 </r>
       <r>  -28.1899    1.0000 </r>
       <r>  -28.1899    1.0000 </r>
       <r>  -27.7948    1.0000 </r>
       <r>  -27.7948    1.0000 </r>
       <r>  -27.7837    1.0000 </r>
       <r>  -27.7837    1.0000 </r>
       <r>  -11.8721    1.0000 </r>
       <r>  -11.8721    1.0000 </r>
       <r>  -11.1328    1.0000 </r>
       <r>  -11.1328    1.0000 </r>
       <r>    0.1907    1.0000 </r>
       <r>    0.1907    1.0000 </r>
       <r>    1.2379    1.0000 </r>
       <r>    1.2379    1.0000 </r>
       <r>    1.9871    1.0000 </r>
       <r>    1.9871    1.0000 </r>
       <r>    2.8914    1.0000 </r>
       <r>    2.8914    1.0000 </r>
       <r>    3.2406    1.0000 </r>
       <r>    3.2406    1.0000 </r>
       <r>    4.2404    1.0000 </r>
       <r>    4.2404    1.0000 </r>
       <r>    7.1889    0.0000 </r>
       <r>    7.1889    0.0000 </r>
       <r>    8.4784    0.0000 </r>
       <r>    8.4784    0.0000 </r>
      </set>
      <set comment="kpoint 35">
       <r>  -51.5884    1.0000 </r>
       <r>  -51.5884    1.0000 </r>
       <r>  -28.1862    1.0000 </r>
       <r>  -28.1792    1.0000 </r>
       <r>  -27.8054    1.0000 </r>
       <r>  -27.7964    1.0000 </r>
       <r>  -27.7855    1.0000 </r>
       <r>  -27.7844    1.0000 </r>
       <r>  -11.8269    1.0000 </r>
       <r>  -11.5716    1.0000 </r>
       <r>  -11.4560    1.0000 </r>
       <r>  -11.1879    1.0000 </r>
       <r>    0.3865    1.0000 </r>
       <r>    0.9106    1.0000 </r>
       <r>    1.1059    1.0000 </r>
       <r>    1.1117    1.0000 </r>
       <r>    1.3469    1.0000 </r>
       <r>    2.4944    1.0000 </r>
       <r>    2.6248    1.0000 </r>
       <r>    2.7008    1.0000 </r>
       <r>    3.1423    1.0000 </r>
       <r>    3.5220    1.0000 </r>
       <r>    3.5790    1.0000 </r>
       <r>    3.8738    1.0000 </r>
       <r>    7.6684    0.0000 </r>
       <r>    8.1745    0.0000 </r>
       <r>    8.4661    0.0000 </r>
       <r>    8.4669    0.0000 </r>
      </set>
      <set comment="kpoint 36">
       <r>  -51.5883    1.0000 </r>
       <r>  -51.5883    1.0000 </r>
       <r>  -28.1889    1.0000 </r>
       <r>  -28.1820    1.0000 </r>
       <r>  -27.8031    1.0000 </r>
       <r>  -27.7943    1.0000 </r>
       <r>  -27.7853    1.0000 </r>
       <r>  -27.7843    1.0000 </r>
       <r>  -11.8744    1.0000 </r>
       <r>  -11.7074    1.0000 </r>
       <r>  -11.3102    1.0000 </r>
       <r>  -11.1303    1.0000 </r>
       <r>    0.2045    1.0000 </r>
       <r>    0.5249    1.0000 </r>
       <r>    1.1090    1.0000 </r>
       <r>    1.2354    1.0000 </r>
       <r>    1.3903    1.0000 </r>
       <r>    2.3265    1.0000 </r>
       <r>    2.6745    1.0000 </r>
       <r>    2.7555    1.0000 </r>
       <r>    3.3355    1.0000 </r>
       <r>    3.7873    1.0000 </r>
       <r>    3.8913    1.0000 </r>
       <r>    4.1141    1.0000 </r>
       <r>    7.3436    0.0000 </r>
       <r>    7.7527    0.0000 </r>
       <r>    8.4771    0.0000 </r>
       <r>    8.4774    0.0000 </r>
      </set>
      <set comment="kpoint 37">
       <r>  -51.5884    1.0000 </r>
       <r>  -51.5884    1.0000 </r>
       <r>  -28.1869    1.0000 </r>
       <r>  -28.1869    1.0000 </r>
       <r>  -27.7976    1.0000 </r>
       <r>  -27.7976    1.0000 </r>
       <r>  -27.7847    1.0000 </r>
       <r>  -27.7847    1.0000 </r>
       <r>  -11.8304    1.0000 </r>
       <r>  -11.8304    1.0000 </r>
       <r>  -11.1758    1.0000 </r>
       <r>  -11.1758    1.0000 </r>
       <r>    0.2273    1.0000 </r>
       <r>    0.2273    1.0000 </r>
       <r>    1.1697    1.0000 </r>
       <r>    1.1697    1.0000 </r>
       <r>    1.8709    1.0000 </r>
       <r>    1.8709    1.0000 </r>
       <r>    2.7040    1.0000 </r>
       <r>    2.7040    1.0000 </r>
       <r>    3.5593    1.0000 </r>
       <r>    3.5593    1.0000 </r>
       <r>    4.3164    1.0000 </r>
       <r>    4.3164    1.0000 </r>
       <r>    7.3130    0.0000 </r>
       <r>    7.3130    0.0000 </r>
       <r>    8.4834    0.0000 </r>
       <r>    8.4834    0.0000 </r>
      </set>
      <set comment="kpoint 38">
       <r>  -51.5883    1.0000 </r>
       <r>  -51.5883    1.0000 </r>
       <r>  -28.1858    1.0000 </r>
       <r>  -28.1787    1.0000 </r>
       <r>  -27.8066    1.0000 </r>
       <r>  -27.7975    1.0000 </r>
       <r>  -27.7863    1.0000 </r>
       <r>  -27.7851    1.0000 </r>
       <r>  -11.8351    1.0000 </r>
       <r>  -11.6189    1.0000 </r>
       <r>  -11.3969    1.0000 </r>
       <r>  -11.1678    1.0000 </r>
       <r>    0.1878    1.0000 </r>
       <r>    0.6640    1.0000 </r>
       <r>    0.8396    1.0000 </r>
       <r>    1.0259    1.0000 </r>
       <r>    1.4210    1.0000 </r>
       <r>    2.1966    1.0000 </r>
       <r>    2.5132    1.0000 </r>
       <r>    2.6404    1.0000 </r>
       <r>    3.6852    1.0000 </r>
       <r>    3.9268    1.0000 </r>
       <r>    4.1991    1.0000 </r>
       <r>    4.4370    1.0000 </r>
       <r>    7.3667    0.0000 </r>
       <r>    7.9836    0.0000 </r>
       <r>    8.4283    0.0000 </r>
       <r>    8.5161    0.0000 </r>
      </set>
      <set comment="kpoint 39">
       <r>  -51.5883    1.0000 </r>
       <r>  -51.5883    1.0000 </r>
       <r>  -28.1807    1.0000 </r>
       <r>  -28.1807    1.0000 </r>
       <r>  -27.8038    1.0000 </r>
       <r>  -27.8038    1.0000 </r>
       <r>  -27.7861    1.0000 </r>
       <r>  -27.7861    1.0000 </r>
       <r>  -11.7238    1.0000 </r>
       <r>  -11.7238    1.0000 </r>
       <r>  -11.2846    1.0000 </r>
       <r>  -11.2846    1.0000 </r>
       <r>    0.3490    1.0000 </r>
       <r>    0.3490    1.0000 </r>
       <r>    0.9276    1.0000 </r>
       <r>    0.9276    1.0000 </r>
       <r>    1.7426    1.0000 </r>
       <r>    1.7426    1.0000 </r>
       <r>    2.5726    1.0000 </r>
       <r>    2.5726    1.0000 </r>
       <r>    3.8752    1.0000 </r>
       <r>    3.8752    1.0000 </r>
       <r>    4.5079    1.0000 </r>
       <r>    4.5079    1.0000 </r>
       <r>    7.6308    0.0000 </r>
       <r>    7.6308    0.0000 </r>
       <r>    8.4933    0.0000 </r>
       <r>    8.4934    0.0000 </r>
      </set>
      <set comment="kpoint 40">
       <r>  -51.5883    1.0000 </r>
       <r>  -51.5883    1.0000 </r>
       <r>  -28.1775    1.0000 </r>
       <r>  -28.1775    1.0000 </r>
       <r>  -27.8072    1.0000 </r>
       <r>  -27.8072    1.0000 </r>
       <r>  -27.7867    1.0000 </r>
       <r>  -27.7867    1.0000 </r>
       <r>  -11.6421    1.0000 </r>
       <r>  -11.6421    1.0000 </r>
       <r>  -11.3675    1.0000 </r>
       <r>  -11.3675    1.0000 </r>
       <r>    0.5166    1.0000 </r>
       <r>    0.5166    1.0000 </r>
       <r>    0.6787    1.0000 </r>
       <r>    0.6787    1.0000 </r>
       <r>    1.7214    1.0000 </r>
       <r>    1.7214    1.0000 </r>
       <r>    2.5265    1.0000 </r>
       <r>    2.5265    1.0000 </r>
       <r>    3.9779    1.0000 </r>
       <r>    3.9779    1.0000 </r>
       <r>    4.6199    1.0000 </r>
       <r>    4.6199    1.0000 </r>
       <r>    7.8933    0.0000 </r>
       <r>    7.8933    0.0000 </r>
       <r>    8.4848    0.0000 </r>
       <r>    8.4857    0.0000 </r>
      </set>
     </set>
    </set>
   </array>
  </eigenvalues>
  <separator name="orbital magnetization" >
   <v name="MAGDIPOLOUT">      0.00000000      0.00000000      0.00000000</v>
  </separator>
 </calculation>
 <structure name="finalpos" >
  <crystal>
   <varray name="basis" >
    <v>       4.58400000       0.00000000       0.00000000 </v>
    <v>       0.00000000       4.58400000       0.00000000 </v>
    <v>       0.00000000       0.00000000       2.95300000 </v>
   </varray>
   <i name="volume">     62.05155437 </i>
   <varray name="rec_basis" >
    <v>       0.21815009       0.00000000       0.00000000 </v>
    <v>       0.00000000       0.21815009       0.00000000 </v>
    <v>       0.00000000       0.00000000       0.33863867 </v>
   </varray>
  </crystal>
  <varray name="positions" >
   <v>       0.00000000      -0.00000000       0.00000000 </v>
   <v>       0.50000000       0.50000000       0.50000000 </v>
   <v>       0.19623686       0.80376314       0.50000000 </v>
   <v>       0.80376314       0.19623686       0.50000000 </v>
   <v>       0.30376314       0.30376314      -0.00000000 </v>
   <v>       0.69623686       0.69623686      -0.00000000 </v>
  </varray>
 </structure>
</modeling>
