TiO2                                    
           1
     4.584000    0.000000    0.000000
     0.000000    4.584000    0.000000
     0.000000    0.000000    2.953000
   Ti   O 
     2     4
Direct configuration=     1
   0.00000000  0.00000000  0.00000000
   0.50000000  0.50000000  0.50000000
   0.19542000  0.80458000  0.50000000
   0.80458000  0.19542000  0.50000000
   0.30458000  0.30458000  0.00000000
   0.69542000  0.69542000  0.00000000
Direct configuration=     2
   0.00000000 -0.00000000  0.00000000
   0.50000000  0.50000000  0.50000000
   0.19623686  0.80376314  0.50000000
   0.80376314  0.19623686  0.50000000
   0.30376314  0.30376314 -0.00000000
   0.69623686  0.69623686 -0.00000000
